 Entering Gaussian System, Link 0=g16
 Input=dimer_0.com
 Output=dimer_0.log
 Initial command:
 /cm/shared/apps/gaussian/g16/C01/g16/l1.exe "/local/scratch/tirri/Gau-191503.inp" -scrdir="/local/scratch/tirri/"
 Entering Link 1 = /cm/shared/apps/gaussian/g16/C01/g16/l1.exe PID=    191504.
  
 Copyright (c) 1988-2019, Gaussian, Inc.  All Rights Reserved.
  
 This is part of the Gaussian(R) 16 program.  It is based on
 the Gaussian(R) 09 system (copyright 2009, Gaussian, Inc.),
 the Gaussian(R) 03 system (copyright 2003, Gaussian, Inc.),
 the Gaussian(R) 98 system (copyright 1998, Gaussian, Inc.),
 the Gaussian(R) 94 system (copyright 1995, Gaussian, Inc.),
 the Gaussian 92(TM) system (copyright 1992, Gaussian, Inc.),
 the Gaussian 90(TM) system (copyright 1990, Gaussian, Inc.),
 the Gaussian 88(TM) system (copyright 1988, Gaussian, Inc.),
 the Gaussian 86(TM) system (copyright 1986, Carnegie Mellon
 University), and the Gaussian 82(TM) system (copyright 1983,
 Carnegie Mellon University). Gaussian is a federally registered
 trademark of Gaussian, Inc.
  
 This software contains proprietary and confidential information,
 including trade secrets, belonging to Gaussian, Inc.
  
 This software is provided under written license and may be
 used, copied, transmitted, or stored only in accord with that
 written license.
  
 The following legend is applicable only to US Government
 contracts under FAR:
  
                    RESTRICTED RIGHTS LEGEND
  
 Use, reproduction and disclosure by the US Government is
 subject to restrictions as set forth in subparagraphs (a)
 and (c) of the Commercial Computer Software - Restricted
 Rights clause in FAR 52.227-19.
  
 Gaussian, Inc.
 340 Quinnipiac St., Bldg. 40, Wallingford CT 06492
  
  
 ---------------------------------------------------------------
 Warning -- This program may not be used in any manner that
 competes with the business of Gaussian, Inc. or will provide
 assistance to any competitor of Gaussian, Inc.  The licensee
 of this program is prohibited from giving any competitor of
 Gaussian, Inc. access to this program.  By using this program,
 the user acknowledges that Gaussian, Inc. is engaged in the
 business of creating and licensing software in the field of
 computational chemistry and represents and warrants to the
 licensee that it is not a competitor of Gaussian, Inc. and that
 it will not use this program in any manner prohibited above.
 ---------------------------------------------------------------
  

 Cite this work as:
 Gaussian 16, Revision C.01,
 M. J. Frisch, G. W. Trucks, H. B. Schlegel, G. E. Scuseria, 
 M. A. Robb, J. R. Cheeseman, G. Scalmani, V. Barone, 
 G. A. Petersson, H. Nakatsuji, X. Li, M. Caricato, A. V. Marenich, 
 J. Bloino, B. G. Janesko, R. Gomperts, B. Mennucci, H. P. Hratchian, 
 J. V. Ortiz, A. F. Izmaylov, J. L. Sonnenberg, D. Williams-Young, 
 F. Ding, F. Lipparini, F. Egidi, J. Goings, B. Peng, A. Petrone, 
 T. Henderson, D. Ranasinghe, V. G. Zakrzewski, J. Gao, N. Rega, 
 G. Zheng, W. Liang, M. Hada, M. Ehara, K. Toyota, R. Fukuda, 
 J. Hasegawa, M. Ishida, T. Nakajima, Y. Honda, O. Kitao, H. Nakai, 
 T. Vreven, K. Throssell, J. A. Montgomery, Jr., J. E. Peralta, 
 F. Ogliaro, M. J. Bearpark, J. J. Heyd, E. N. Brothers, K. N. Kudin, 
 V. N. Staroverov, T. A. Keith, R. Kobayashi, J. Normand, 
 K. Raghavachari, A. P. Rendell, J. C. Burant, S. S. Iyengar, 
 J. Tomasi, M. Cossi, J. M. Millam, M. Klene, C. Adamo, R. Cammi, 
 J. W. Ochterski, R. L. Martin, K. Morokuma, O. Farkas, 
 J. B. Foresman, and D. J. Fox, Gaussian, Inc., Wallingford CT, 2019.
 
 ******************************************
 Gaussian 16:  ES64L-G16RevC.01  3-Jul-2019
                12-May-2021 
 ******************************************
 %CHK=dimer_0.chk
 %MEM=100GB
 %Nprocs=32
 Will use up to   32 processors via shared memory.
 ----------------------------------------------------------------------
 #P PBEQIDH/gen Extralinks=L608 INT=(ultrafine) SCF=tight integral=NoXC
 Test
 ----------------------------------------------------------------------
 1/38=1,172=1/1;
 2/12=2,17=6,18=5,40=1/2;
 3/5=7,11=9,25=1,30=1,47=8,74=-79,75=-5/1,2,3;
 4//1;
 5/5=2,32=2,38=5/2;
 8/10=1/1;
 9/16=-3/6;
 6/7=2,8=2,9=2,10=2/1,8;
 99/5=1,9=1/99;
 Leave Link    1 at Wed May 12 01:35:45 2021, MaxMem= 13421772800 cpu:               1.4 elap:               0.1
 (Enter /cm/shared/apps/gaussian/g16/C01/g16/l101.exe)
 ------------------------------------------
 0_dimer DH-SVPD --> H C N Def2-SVPD --> Br
 ------------------------------------------
 Symbolic Z-matrix:
 Charge =  0 Multiplicity = 1
 H                     0.        0.        2.48163 
 Br                    0.        0.        1.06084 
 N                     0.        0.       -2.17496 
 C                     0.        0.       -3.33131 
 H                     0.        0.       -4.39852 
 
 ITRead=  0  0  0  0  0
 MicOpt= -1 -1 -1 -1 -1
 NAtoms=      5 NQM=        5 NQMF=       0 NMMI=      0 NMMIF=      0
                NMic=       0 NMicF=      0.
                    Isotopes and Nuclear Properties:
 (Nuclear quadrupole moments (NQMom) in fm**2, nuclear magnetic moments (NMagM)
  in nuclear magnetons)

  Atom         1           2           3           4           5
 IAtWgt=           1          79          14          12           1
 AtmWgt=   1.0078250  78.9183361  14.0030740  12.0000000   1.0078250
 NucSpn=           1           3           2           0           1
 AtZEff=  -0.0000000  -0.0000000  -0.0000000  -0.0000000  -0.0000000
 NQMom=    0.0000000  31.3000000   2.0440000   0.0000000   0.0000000
 NMagM=    2.7928460   2.1063990   0.4037610   0.0000000   2.7928460
 AtZNuc=   1.0000000  35.0000000   7.0000000   6.0000000   1.0000000
 Leave Link  101 at Wed May 12 01:35:45 2021, MaxMem= 13421772800 cpu:               4.7 elap:               0.2
 (Enter /cm/shared/apps/gaussian/g16/C01/g16/l202.exe)
                          Input orientation:                          
 ---------------------------------------------------------------------
 Center     Atomic      Atomic             Coordinates (Angstroms)
 Number     Number       Type             X           Y           Z
 ---------------------------------------------------------------------
      1          1           0        0.000000    0.000000    2.481626
      2         35           0        0.000000    0.000000    1.060842
      3          7           0        0.000000    0.000000   -2.174959
      4          6           0        0.000000    0.000000   -3.331310
      5          1           0        0.000000    0.000000   -4.398520
 ---------------------------------------------------------------------
                    Distance matrix (angstroms):
                    1          2          3          4          5
     1  H    0.000000
     2  Br   1.420784   0.000000
     3  N    4.656585   3.235801   0.000000
     4  C    5.812936   4.392152   1.156351   0.000000
     5  H    6.880146   5.459362   2.223561   1.067210   0.000000
 Stoichiometry    CH2BrN
 Framework group  C*V[C*(HCNBrH)]
 Deg. of freedom     4
 Full point group                 C*V     NOp   4
 Largest Abelian subgroup         C2V     NOp   4
 Largest concise Abelian subgroup C1      NOp   1
                         Standard orientation:                         
 ---------------------------------------------------------------------
 Center     Atomic      Atomic             Coordinates (Angstroms)
 Number     Number       Type             X           Y           Z
 ---------------------------------------------------------------------
      1          1           0        0.000000    0.000000    2.481626
      2         35           0        0.000000    0.000000    1.060842
      3          7           0        0.000000    0.000000   -2.174959
      4          6           0        0.000000    0.000000   -3.331310
      5          1           0        0.000000    0.000000   -4.398520
 ---------------------------------------------------------------------
 Rotational constants (GHZ):           0.0000000           1.6160496           1.6160496
 Leave Link  202 at Wed May 12 01:35:45 2021, MaxMem= 13421772800 cpu:               1.5 elap:               0.1
 (Enter /cm/shared/apps/gaussian/g16/C01/g16/l301.exe)
 General basis read from cards:  (5D, 7F)
 Centers:       2
 S 6 1.00
     Exponent=  1.1328638776D+05 Coefficients=  1.4283037779D-03
     Exponent=  1.7009626303D+04 Coefficients=  1.0950417496D-02
     Exponent=  3.8701842567D+03 Coefficients=  5.4421006604D-02
     Exponent=  1.0930357227D+03 Coefficients=  1.9047907695D-01
     Exponent=  3.5639721797D+02 Coefficients=  3.9024642737D-01
     Exponent=  1.2312539643D+02 Coefficients=  3.0814432514D-01
 S 3 1.00
     Exponent=  2.3674084007D+02 Coefficients= -1.1228065671D-01
     Exponent=  2.8468661070D+01 Coefficients=  6.4775962312D-01
     Exponent=  1.1883443722D+01 Coefficients=  4.4235575986D-01
 S 3 1.00
     Exponent=  2.1269633312D+01 Coefficients= -2.2642576323D-01
     Exponent=  3.6129226841D+00 Coefficients=  7.3823712008D-01
     Exponent=  1.6626648969D+00 Coefficients=  4.2683868694D-01
 S 1 1.00
     Exponent=  3.4823793232D-01 Coefficients=  1.0000000000D+00
 S 1 1.00
     Exponent=  1.3019031394D-01 Coefficients=  1.0000000000D+00
 S 1 1.00
     Exponent=  5.0966709763D-02 Coefficients=  1.0000000000D+00
 P 5 1.00
     Exponent=  1.5602801881D+03 Coefficients=  8.7166669072D-03
     Exponent=  3.6847859205D+02 Coefficients=  6.6243637420D-02
     Exponent=  1.1722978849D+02 Coefficients=  2.6495610385D-01
     Exponent=  4.2648909248D+01 Coefficients=  5.3839160587D-01
     Exponent=  1.6087225096D+01 Coefficients=  3.6579387888D-01
 P 3 1.00
     Exponent=  8.6352810058D+00 Coefficients=  3.4248787366D-01
     Exponent=  3.5613665502D+00 Coefficients=  5.7500678213D-01
     Exponent=  1.5292626609D+00 Coefficients=  2.4330394172D-01
 P 1 1.00
     Exponent=  5.3064294848D-01 Coefficients=  1.0000000000D+00
 P 1 1.00
     Exponent=  1.5702758965D-01 Coefficients=  1.0000000000D+00
 P 1 1.00
     Exponent=  9.2539109970D-02 Coefficients=  1.0000000000D+00
 D 4 1.00
     Exponent=  1.0485518642D+02 Coefficients=  2.2650147581D-02
     Exponent=  3.0281143688D+01 Coefficients=  1.3455483230D-01
     Exponent=  1.0651394267D+01 Coefficients=  3.6474454537D-01
     Exponent=  3.8699456233D+00 Coefficients=  4.9044587056D-01
 D 1 1.00
     Exponent=  1.3240876762D+00 Coefficients=  2.7137289040D-01
 D 1 1.00
     Exponent=  3.8900000000D-01 Coefficients=  1.0000000000D+00
 D 1 1.00
     Exponent=  1.6579741459D-01 Coefficients=  1.0000000000D+00
 ****
 Centers:       1      5
 s 3 1.00
     Exponent=  1.3010701000D+01 Coefficients=  1.9682158000D-02
     Exponent=  1.9622572000D+00 Coefficients=  1.3796524000D-01
     Exponent=  4.4453796000D-01 Coefficients=  4.7831935000D-01
 S 1 1.00
     Exponent=  4.6178678500D-01 Coefficients=  1.0000000000D+00
 P 1 1.00
     Exponent=  8.0000000000D-01 Coefficients=  1.0000000000D+00
 P 1 1.00
     Exponent=  7.9134024200D-02 Coefficients=  1.0000000000D+00
 ****
 Centers:       3
 S 5 1.00
     Exponent=  1.7128415853D+03 Coefficients= -5.3934125305D-03
     Exponent=  2.5764812677D+02 Coefficients= -4.0221581118D-02
     Exponent=  5.8458245853D+01 Coefficients= -1.7931144990D-01
     Exponent=  1.6198367905D+01 Coefficients= -4.6376317823D-01
     Exponent=  5.0052600809D+00 Coefficients= -4.4171422662D-01
 S 1 1.00
     Exponent=  5.8731856571D-01 Coefficients=  1.0000000000D+00
 S 1 1.00
     Exponent=  1.8764592253D-01 Coefficients=  1.0000000000D+00
 S 1 1.00
     Exponent=  9.6171241529D-02 Coefficients=  1.0000000000D+00
 P 3 1.00
     Exponent=  1.3571470233D+01 Coefficients= -4.0072398852D-02
     Exponent=  2.9257372874D+00 Coefficients= -2.1807045028D-01
     Exponent=  7.9927750754D-01 Coefficients= -5.1294466049D-01
 P 1 1.00
     Exponent=  1.9188614740D-01 Coefficients=  1.0000000000D+00
 D 1 1.00
     Exponent=  1.0000000000D+00 Coefficients=  1.0000000000D+00
 D 1 1.00
     Exponent=  3.0954432590D-01 Coefficients=  1.0000000000D+00
 ****
 Centers:       4
 S 5 1.00
     Exponent=  1.2384016938D+03 Coefficients=  5.4568832082D-03
     Exponent=  1.8629004992D+02 Coefficients=  4.0638409211D-02
     Exponent=  4.2251176346D+01 Coefficients=  1.8025593888D-01
     Exponent=  1.1676557932D+01 Coefficients=  4.6315121755D-01
     Exponent=  3.5930506482D+00 Coefficients=  4.4087173314D-01
 S 1 1.00
     Exponent=  4.0245147363D-01 Coefficients=  1.0000000000D+00
 S 1 1.00
     Exponent=  1.3090182668D-01 Coefficients=  1.0000000000D+00
 S 1 1.00
     Exponent=  6.7053540256D-02 Coefficients=  1.0000000000D+00
 P 3 1.00
     Exponent=  9.4680970621D+00 Coefficients=  3.8387871728D-02
     Exponent=  2.0103545142D+00 Coefficients=  2.1117025112D-01
     Exponent=  5.4771004707D-01 Coefficients=  5.1328172114D-01
 P 1 1.00
     Exponent=  1.5080365500D-01 Coefficients=  1.0000000000D+00
 D 1 1.00
     Exponent=  8.0000000000D-01 Coefficients=  1.0000000000D+00
 D 1 1.00
     Exponent=  3.2292947900D-01 Coefficients=  1.0000000000D+00
 ****
 Ernie: Thresh=  0.10000D-02 Tol=  0.10000D-05 Strict=F.
 There are    55 symmetry adapted cartesian basis functions of A1  symmetry.
 There are     8 symmetry adapted cartesian basis functions of A2  symmetry.
 There are    21 symmetry adapted cartesian basis functions of B1  symmetry.
 There are    21 symmetry adapted cartesian basis functions of B2  symmetry.
 There are    47 symmetry adapted basis functions of A1  symmetry.
 There are     8 symmetry adapted basis functions of A2  symmetry.
 There are    21 symmetry adapted basis functions of B1  symmetry.
 There are    21 symmetry adapted basis functions of B2  symmetry.
    97 basis functions,   174 primitive gaussians,   105 cartesian basis functions
    25 alpha electrons       25 beta electrons
       nuclear repulsion energy       107.0765851549 Hartrees.
 IExCor= 1009 DFT=T Ex+Corr=PBEQIDH ExCW=0 ScaHFX=  0.690000
 ScaDFX=  0.310000  0.310000  0.666600  0.666600 ScalE2=  0.333400  0.333400
 IRadAn=      5 IRanWt=     -1 IRanGd=            0 ICorTp=0 IEmpDi=  4
 NAtoms=    5 NActive=    5 NUniq=    5 SFac= 1.00D+00 NAtFMM=   60 NAOKFM=F Big=F
 Integral buffers will be    131072 words long.
 Regular integral format.
 Two-electron integral symmetry is turned on.
 Leave Link  301 at Wed May 12 01:35:45 2021, MaxMem= 13421772800 cpu:               2.8 elap:               0.1
 (Enter /cm/shared/apps/gaussian/g16/C01/g16/l302.exe)
 NPDir=0 NMtPBC=     1 NCelOv=     1 NCel=       1 NClECP=     1 NCelD=      1
         NCelK=      1 NCelE2=     1 NClLst=     1 CellRange=     0.0.
 One-electron integrals computed using PRISM.
 One-electron integral symmetry used in STVInt
 NBasis=    97 RedAO= T EigKep=  9.43D-04  NBF=    47     8    21    21
 NBsUse=    97 1.00D-06 EigRej= -1.00D+00 NBFU=    47     8    21    21
 Precomputing XC quadrature grid using
 IXCGrd= 4 IRadAn=           5 IRanWt=          -1 IRanGd=           0 AccXCQ= 0.00D+00.
 Generated NRdTot=       0 NPtTot=           0 NUsed=           0 NTot=          32
 NSgBfM=   104   104   104   104   104 MxSgAt=     5 MxSgA2=     5.
 Leave Link  302 at Wed May 12 01:35:45 2021, MaxMem= 13421772800 cpu:               4.8 elap:               0.2
 (Enter /cm/shared/apps/gaussian/g16/C01/g16/l303.exe)
 DipDrv:  MaxL=1.
 Leave Link  303 at Wed May 12 01:35:45 2021, MaxMem= 13421772800 cpu:               2.1 elap:               0.1
 (Enter /cm/shared/apps/gaussian/g16/C01/g16/l401.exe)
 ExpMin= 5.10D-02 ExpMax= 1.13D+05 ExpMxC= 1.70D+04 IAcc=3 IRadAn=         5 AccDes= 0.00D+00
 Harris functional with IExCor= 1009 and IRadAn=       5 diagonalized for initial guess.
 HarFok:  IExCor= 1009 AccDes= 0.00D+00 IRadAn=         5 IDoV= 1 UseB2=F ITyADJ=14
 ICtDFT=  3500011 ScaDFX=  1.000000  1.000000  1.000000  1.000000
 FoFCou: FMM=F IPFlag=           8 FMFlag=      100000 FMFlg1=           0
         NFxFlg=           0 DoJE=T BraDBF=F KetDBF=T FulRan=T
         wScrn=  0.000000 ICntrl=       500 IOpCl=  0 I1Cent=   200000004 NGrid=           0
         NMat0=    1 NMatS0=      1 NMatT0=    0 NMatD0=    1 NMtDS0=    0 NMtDT0=    0
 Petite list used in FoFCou.
 Harris En= -2667.32814895108    
 JPrj=0 DoOrth=F DoCkMO=F.
 Initial guess orbital symmetries:
       Occupied  (SG) (SG) (SG) (PI) (PI) (SG) (SG) (SG) (SG) (PI)
                 (PI) (SG) (PI) (PI) (DLTA) (DLTA) (SG) (SG) (SG)
                 (SG) (SG) (PI) (PI) (PI) (PI)
       Virtual   (PI) (PI) (SG) (SG) (SG) (SG) (PI) (PI) (SG) (PI)
                 (PI) (PI) (PI) (DLTA) (DLTA) (SG) (SG) (PI) (PI)
                 (SG) (SG) (SG) (PI) (PI) (DLTA) (DLTA) (SG) (PI)
                 (PI) (SG) (PI) (PI) (SG) (DLTA) (DLTA) (SG) (DLTA)
                 (DLTA) (PI) (PI) (PI) (PI) (SG) (SG) (SG) (PI)
                 (PI) (PI) (PI) (SG) (SG) (SG) (PI) (PI) (PI) (PI)
                 (DLTA) (DLTA) (SG) (DLTA) (DLTA) (SG) (PI) (PI)
                 (SG) (SG) (DLTA) (DLTA) (PI) (PI) (SG) (SG)
 The electronic state of the initial guess is 1-SG.
 Leave Link  401 at Wed May 12 01:35:46 2021, MaxMem= 13421772800 cpu:              10.6 elap:               0.4
 (Enter /cm/shared/apps/gaussian/g16/C01/g16/l502.exe)
 Keep R1 ints in memory in symmetry-blocked form, NReq=41095401.
 FoFCou: FMM=F IPFlag=           8 FMFlag=           0 FMFlg1=           0
         NFxFlg=           0 DoJE=F BraDBF=F KetDBF=F FulRan=T
         wScrn=  0.000000 ICntrl=       600 IOpCl=  0 I1Cent=           0 NGrid=           0
         NMat0=    1 NMatS0=   4753 NMatT0=    0 NMatD0=    1 NMtDS0=    0 NMtDT0=    0
 Petite list used in FoFCou.
 Closed shell SCF:
 Using DIIS extrapolation, IDIIS=  1040.
 NGot= 13421772800 LenX= 13418740488 LenY= 13418729022
 Requested convergence on RMS density matrix=1.00D-08 within 128 cycles.
 Requested convergence on MAX density matrix=1.00D-06.
 Requested convergence on             energy=1.00D-06.
 No special actions if energy rises.
 Integral accuracy reduced to 1.0D-05 until final iterations.

 Cycle   1  Pass 0  IDiag  1:
 E= -2666.75486435065    
 DIIS: error= 4.30D-02 at cycle   1 NSaved=   1.
 NSaved= 1 IEnMin= 1 EnMin= -2666.75486435065     IErMin= 1 ErrMin= 4.30D-02
 ErrMax= 4.30D-02  0.00D+00 EMaxC= 1.00D-01 BMatC= 2.05D-01 BMatP= 2.05D-01
 IDIUse=3 WtCom= 5.70D-01 WtEn= 4.30D-01
 Coeff-Com:  0.100D+01
 Coeff-En:   0.100D+01
 Coeff:      0.100D+01
 Gap=     0.469 Goal=   None    Shift=    0.000
 GapD=    0.469 DampG=2.000 DampE=0.500 DampFc=1.0000 IDamp=-1.
 RMSDP=4.72D-03 MaxDP=8.00D-02              OVMax= 1.09D-01

 Cycle   2  Pass 0  IDiag  1:
 E= -2666.79431676502     Delta-E=       -0.039452414363 Rises=F Damp=F
 DIIS: error= 2.32D-02 at cycle   2 NSaved=   2.
 NSaved= 2 IEnMin= 2 EnMin= -2666.79431676502     IErMin= 2 ErrMin= 2.32D-02
 ErrMax= 2.32D-02  0.00D+00 EMaxC= 1.00D-01 BMatC= 5.98D-02 BMatP= 2.05D-01
 IDIUse=3 WtCom= 7.68D-01 WtEn= 2.32D-01
 Coeff-Com:  0.336D+00 0.664D+00
 Coeff-En:   0.207D+00 0.793D+00
 Coeff:      0.306D+00 0.694D+00
 Gap=     0.434 Goal=   None    Shift=    0.000
 RMSDP=2.49D-03 MaxDP=5.95D-02 DE=-3.95D-02 OVMax= 8.09D-02

 Cycle   3  Pass 0  IDiag  1:
 E= -2666.81770603599     Delta-E=       -0.023389270972 Rises=F Damp=F
 DIIS: error= 1.12D-02 at cycle   3 NSaved=   3.
 NSaved= 3 IEnMin= 3 EnMin= -2666.81770603599     IErMin= 3 ErrMin= 1.12D-02
 ErrMax= 1.12D-02  0.00D+00 EMaxC= 1.00D-01 BMatC= 9.82D-03 BMatP= 5.98D-02
 IDIUse=3 WtCom= 8.88D-01 WtEn= 1.12D-01
 Coeff-Com:  0.114D+00 0.345D+00 0.540D+00
 Coeff-En:   0.000D+00 0.170D+00 0.830D+00
 Coeff:      0.102D+00 0.326D+00 0.573D+00
 Gap=     0.432 Goal=   None    Shift=    0.000
 RMSDP=9.73D-04 MaxDP=2.40D-02 DE=-2.34D-02 OVMax= 3.99D-02

 Cycle   4  Pass 0  IDiag  1:
 E= -2666.82550912944     Delta-E=       -0.007803093456 Rises=F Damp=F
 DIIS: error= 2.76D-03 at cycle   4 NSaved=   4.
 NSaved= 4 IEnMin= 4 EnMin= -2666.82550912944     IErMin= 4 ErrMin= 2.76D-03
 ErrMax= 2.76D-03  0.00D+00 EMaxC= 1.00D-01 BMatC= 7.09D-04 BMatP= 9.82D-03
 IDIUse=3 WtCom= 9.72D-01 WtEn= 2.76D-02
 Coeff-Com: -0.109D-01 0.283D-01 0.240D+00 0.743D+00
 Coeff-En:   0.000D+00 0.000D+00 0.000D+00 0.100D+01
 Coeff:     -0.106D-01 0.275D-01 0.233D+00 0.750D+00
 Gap=     0.436 Goal=   None    Shift=    0.000
 RMSDP=2.78D-04 MaxDP=5.66D-03 DE=-7.80D-03 OVMax= 7.93D-03

 Cycle   5  Pass 0  IDiag  1:
 E= -2666.82607524595     Delta-E=       -0.000566116506 Rises=F Damp=F
 DIIS: error= 1.95D-04 at cycle   5 NSaved=   5.
 NSaved= 5 IEnMin= 5 EnMin= -2666.82607524595     IErMin= 5 ErrMin= 1.95D-04
 ErrMax= 1.95D-04  0.00D+00 EMaxC= 1.00D-01 BMatC= 6.51D-06 BMatP= 7.09D-04
 IDIUse=3 WtCom= 9.98D-01 WtEn= 1.95D-03
 Coeff-Com: -0.249D-02-0.548D-02 0.127D-01 0.118D+00 0.877D+00
 Coeff-En:   0.000D+00 0.000D+00 0.000D+00 0.000D+00 0.100D+01
 Coeff:     -0.248D-02-0.547D-02 0.127D-01 0.118D+00 0.877D+00
 Gap=     0.435 Goal=   None    Shift=    0.000
 RMSDP=3.34D-05 MaxDP=1.05D-03 DE=-5.66D-04 OVMax= 8.09D-04

 Cycle   6  Pass 0  IDiag  1:
 E= -2666.82608115183     Delta-E=       -0.000005905879 Rises=F Damp=F
 DIIS: error= 4.97D-05 at cycle   6 NSaved=   6.
 NSaved= 6 IEnMin= 6 EnMin= -2666.82608115183     IErMin= 6 ErrMin= 4.97D-05
 ErrMax= 4.97D-05  0.00D+00 EMaxC= 1.00D-01 BMatC= 3.12D-07 BMatP= 6.51D-06
 IDIUse=1 WtCom= 1.00D+00 WtEn= 0.00D+00
 Coeff-Com:  0.273D-03-0.291D-02-0.156D-01-0.419D-01 0.133D+00 0.927D+00
 Coeff:      0.273D-03-0.291D-02-0.156D-01-0.419D-01 0.133D+00 0.927D+00
 Gap=     0.435 Goal=   None    Shift=    0.000
 RMSDP=1.24D-05 MaxDP=2.86D-04 DE=-5.91D-06 OVMax= 2.47D-04

 Cycle   7  Pass 0  IDiag  1:
 E= -2666.82608157551     Delta-E=       -0.000000423680 Rises=F Damp=F
 DIIS: error= 9.69D-06 at cycle   7 NSaved=   7.
 NSaved= 7 IEnMin= 7 EnMin= -2666.82608157551     IErMin= 7 ErrMin= 9.69D-06
 ErrMax= 9.69D-06  0.00D+00 EMaxC= 1.00D-01 BMatC= 1.05D-08 BMatP= 3.12D-07
 IDIUse=1 WtCom= 1.00D+00 WtEn= 0.00D+00
 Coeff-Com:  0.141D-03-0.183D-04-0.224D-02-0.116D-01-0.204D-01 0.828D-01
 Coeff-Com:  0.951D+00
 Coeff:      0.141D-03-0.183D-04-0.224D-02-0.116D-01-0.204D-01 0.828D-01
 Coeff:      0.951D+00
 Gap=     0.435 Goal=   None    Shift=    0.000
 RMSDP=2.54D-06 MaxDP=5.75D-05 DE=-4.24D-07 OVMax= 4.85D-05

 Initial convergence to 1.0D-05 achieved.  Increase integral accuracy.
 Cycle   8  Pass 1  IDiag  1:
 E= -2666.82609511011     Delta-E=       -0.000013534600 Rises=F Damp=F
 DIIS: error= 6.90D-06 at cycle   1 NSaved=   1.
 NSaved= 1 IEnMin= 1 EnMin= -2666.82609511011     IErMin= 1 ErrMin= 6.90D-06
 ErrMax= 6.90D-06  0.00D+00 EMaxC= 1.00D-01 BMatC= 2.39D-09 BMatP= 2.39D-09
 IDIUse=1 WtCom= 1.00D+00 WtEn= 0.00D+00
 Coeff-Com:  0.100D+01
 Coeff:      0.100D+01
 Gap=     0.435 Goal=   None    Shift=    0.000
 RMSDP=2.54D-06 MaxDP=5.75D-05 DE=-1.35D-05 OVMax= 1.36D-05

 Cycle   9  Pass 1  IDiag  1:
 E= -2666.82609511218     Delta-E=       -0.000000002076 Rises=F Damp=F
 DIIS: error= 2.10D-06 at cycle   2 NSaved=   2.
 NSaved= 2 IEnMin= 2 EnMin= -2666.82609511218     IErMin= 2 ErrMin= 2.10D-06
 ErrMax= 2.10D-06  0.00D+00 EMaxC= 1.00D-01 BMatC= 3.53D-10 BMatP= 2.39D-09
 IDIUse=1 WtCom= 1.00D+00 WtEn= 0.00D+00
 Coeff-Com:  0.147D+00 0.853D+00
 Coeff:      0.147D+00 0.853D+00
 Gap=     0.435 Goal=   None    Shift=    0.000
 RMSDP=2.57D-07 MaxDP=6.39D-06 DE=-2.08D-09 OVMax= 1.15D-05

 Cycle  10  Pass 1  IDiag  1:
 E= -2666.82609511232     Delta-E=       -0.000000000136 Rises=F Damp=F
 DIIS: error= 1.78D-06 at cycle   3 NSaved=   3.
 NSaved= 3 IEnMin= 3 EnMin= -2666.82609511232     IErMin= 3 ErrMin= 1.78D-06
 ErrMax= 1.78D-06  0.00D+00 EMaxC= 1.00D-01 BMatC= 3.02D-10 BMatP= 3.53D-10
 IDIUse=1 WtCom= 1.00D+00 WtEn= 0.00D+00
 Coeff-Com: -0.586D-01 0.486D+00 0.573D+00
 Coeff:     -0.586D-01 0.486D+00 0.573D+00
 Gap=     0.435 Goal=   None    Shift=    0.000
 RMSDP=1.89D-07 MaxDP=4.58D-06 DE=-1.36D-10 OVMax= 5.25D-06

 Cycle  11  Pass 1  IDiag  1:
 E= -2666.82609511257     Delta-E=       -0.000000000249 Rises=F Damp=F
 DIIS: error= 2.31D-07 at cycle   4 NSaved=   4.
 NSaved= 4 IEnMin= 4 EnMin= -2666.82609511257     IErMin= 4 ErrMin= 2.31D-07
 ErrMax= 2.31D-07  0.00D+00 EMaxC= 1.00D-01 BMatC= 6.69D-12 BMatP= 3.02D-10
 IDIUse=1 WtCom= 1.00D+00 WtEn= 0.00D+00
 Coeff-Com: -0.296D-01 0.121D+00 0.170D+00 0.739D+00
 Coeff:     -0.296D-01 0.121D+00 0.170D+00 0.739D+00
 Gap=     0.435 Goal=   None    Shift=    0.000
 RMSDP=2.60D-08 MaxDP=6.05D-07 DE=-2.49D-10 OVMax= 7.88D-07

 Cycle  12  Pass 1  IDiag  1:
 E= -2666.82609511258     Delta-E=       -0.000000000015 Rises=F Damp=F
 DIIS: error= 7.62D-08 at cycle   5 NSaved=   5.
 NSaved= 5 IEnMin= 5 EnMin= -2666.82609511258     IErMin= 5 ErrMin= 7.62D-08
 ErrMax= 7.62D-08  0.00D+00 EMaxC= 1.00D-01 BMatC= 7.74D-13 BMatP= 6.69D-12
 IDIUse=1 WtCom= 1.00D+00 WtEn= 0.00D+00
 Coeff-Com:  0.616D-02-0.560D-01-0.954D-01 0.366D-01 0.111D+01
 Coeff:      0.616D-02-0.560D-01-0.954D-01 0.366D-01 0.111D+01
 Gap=     0.435 Goal=   None    Shift=    0.000
 RMSDP=1.88D-08 MaxDP=3.59D-07 DE=-1.46D-11 OVMax= 4.41D-07

 Cycle  13  Pass 1  IDiag  1:
 E= -2666.82609511258     Delta-E=        0.000000000002 Rises=F Damp=F
 DIIS: error= 1.03D-08 at cycle   6 NSaved=   6.
 NSaved= 6 IEnMin= 5 EnMin= -2666.82609511258     IErMin= 6 ErrMin= 1.03D-08
 ErrMax= 1.03D-08  0.00D+00 EMaxC= 1.00D-01 BMatC= 1.01D-14 BMatP= 7.74D-13
 IDIUse=1 WtCom= 1.00D+00 WtEn= 0.00D+00
 Coeff-Com:  0.212D-02-0.149D-01-0.230D-01-0.172D-02 0.179D+00 0.859D+00
 Coeff:      0.212D-02-0.149D-01-0.230D-01-0.172D-02 0.179D+00 0.859D+00
 Gap=     0.435 Goal=   None    Shift=    0.000
 RMSDP=1.85D-09 MaxDP=5.30D-08 DE= 2.27D-12 OVMax= 6.26D-08

 SCF Done:  E(RPBEQIDH) =  -2666.82609511     A.U. after   13 cycles
            NFock= 13  Conv=0.19D-08     -V/T= 2.0008
 KE= 2.664606962294D+03 PE=-6.586760470903D+03 EE= 1.148250828342D+03
 Leave Link  502 at Wed May 12 01:35:46 2021, MaxMem= 13421772800 cpu:              15.3 elap:               0.5
 (Enter /cm/shared/apps/gaussian/g16/C01/g16/l801.exe)
 DoSCS=T DFT=T ScalE2(SS,OS)=  0.333400  0.333400
 ExpMin= 5.10D-02 ExpMax= 1.13D+05 ExpMxC= 1.70D+04 IAcc=3 IRadAn=         5 AccDes= 0.00D+00
 HarFok:  IExCor=  205 AccDes= 0.00D+00 IRadAn=         5 IDoV=-2 UseB2=F ITyADJ=14
 ICtDFT= 12500011 ScaDFX=  1.000000  1.000000  1.000000  1.000000
 Largest valence mixing into a core orbital is  9.23D-05
 Largest core mixing into a valence orbital is  3.13D-05
 Range of M.O.s used for correlation:    12    97
 NBasis=    97 NAE=    25 NBE=    25 NFC=    11 NFV=     0
 NROrb=     86 NOA=    14 NOB=    14 NVA=    72 NVB=    72
 Leave Link  801 at Wed May 12 01:35:47 2021, MaxMem= 13421772800 cpu:               3.2 elap:               0.1
 (Enter /cm/shared/apps/gaussian/g16/C01/g16/l906.exe)
 DoSCS=T DFT=T ScalE2(SS,OS)=  0.333400  0.333400
 FulOut=F Deriv=F AODrv=F NAtomX=     5
   MMem=        3698  MDisk=          14 MDiskD=          14
  W3Min=      105840 MinDsk=      216341 NBas6D=         105
 NBas2D=        5724    NTT=        5565    LW2=     2000000
    MDV= 13421693300 MDiskM=     1775091 NBas2p=        5445
 Fully in-core method, ICMem=    39387666.
 IMap=   1   2   3   4   5   6   7   8   9  10  11  12  13  14
 JobTyp=1 Pass  1 fully in-core, NPsUse= 32.
 Compute canonical integrals.
 FoFCou: FMM=F IPFlag=           8 FMFlag=           0 FMFlg1=           0
         NFxFlg=           0 DoJE=F BraDBF=F KetDBF=F FulRan=T
         wScrn=  0.000000 ICntrl=       600 IOpCl=  1 I1Cent=           0 NGrid=           0
         NMat0=    1 NMatS0=   5724 NMatT0=    0 NMatD0=    1 NMtDS0=    0 NMtDT0=    0
 Symmetry not used in FoFCou.
 Spin components of T(2) and E(2):
     alpha-alpha T2 =       0.3328947170D-01 E2=     -0.2919877809D-01
     alpha-beta  T2 =       0.1836787397D+00 E2=     -0.1518856024D+00
     beta-beta   T2 =       0.3328947170D-01 E2=     -0.2919877809D-01
 The integrals were generated   1 times.
 E2(PBEQIDH) =    -0.2102831586D+00 E(PBEQIDH) =    -0.26670363782712D+04
 Leave Link  906 at Wed May 12 01:35:47 2021, MaxMem= 13421772800 cpu:              18.5 elap:               0.7
 (Enter /cm/shared/apps/gaussian/g16/C01/g16/l601.exe)
 Copying SCF densities to generalized density rwf, IOpCl= 0 IROHF=0.

 **********************************************************************

            Population analysis using the SCF Density.

 **********************************************************************

 Orbital symmetries:
       Occupied  (SG) (SG) (SG) (PI) (PI) (SG) (SG) (SG) (SG) (PI)
                 (PI) (SG) (PI) (PI) (DLTA) (DLTA) (SG) (SG) (SG)
                 (SG) (SG) (PI) (PI) (PI) (PI)
       Virtual   (SG) (PI) (PI) (SG) (SG) (SG) (PI) (PI) (PI) (PI)
                 (SG) (PI) (PI) (SG) (SG) (DLTA) (DLTA) (SG) (PI)
                 (PI) (SG) (SG) (PI) (PI) (SG) (DLTA) (DLTA) (SG)
                 (PI) (PI) (PI) (PI) (DLTA) (DLTA) (SG) (DLTA)
                 (DLTA) (SG) (PI) (PI) (SG) (PI) (PI) (SG) (SG)
                 (PI) (PI) (PI) (PI) (SG) (SG) (SG) (PI) (PI) (PI)
                 (PI) (DLTA) (DLTA) (SG) (DLTA) (DLTA) (SG) (PI)
                 (PI) (SG) (SG) (DLTA) (DLTA) (PI) (PI) (SG) (SG)
 The electronic state is 1-SG.
 Alpha  occ. eigenvalues -- -487.16399 -64.10451 -57.64812 -57.64585 -57.64585
 Alpha  occ. eigenvalues --  -15.12151 -10.89489  -9.40000  -7.09747  -7.08737
 Alpha  occ. eigenvalues --   -7.08737  -2.98119  -2.97698  -2.97698  -2.96749
 Alpha  occ. eigenvalues --   -2.96749  -1.12450  -0.93105  -0.74729  -0.53846
 Alpha  occ. eigenvalues --   -0.50241  -0.46648  -0.46648  -0.37512  -0.37512
 Alpha virt. eigenvalues --    0.05974   0.07016   0.07016   0.07148   0.11413
 Alpha virt. eigenvalues --    0.14144   0.16547   0.16547   0.19387   0.19387
 Alpha virt. eigenvalues --    0.23465   0.26750   0.26750   0.31887   0.34030
 Alpha virt. eigenvalues --    0.34051   0.34052   0.41237   0.42646   0.42646
 Alpha virt. eigenvalues --    0.63154   0.63999   0.65048   0.65048   0.66921
 Alpha virt. eigenvalues --    0.67545   0.67545   0.81350   0.81542   0.81542
 Alpha virt. eigenvalues --    0.96618   0.96618   1.00584   1.00584   1.01189
 Alpha virt. eigenvalues --    1.07563   1.07563   1.08454   1.11347   1.11347
 Alpha virt. eigenvalues --    1.15346   1.16085   1.16085   1.23360   1.29359
 Alpha virt. eigenvalues --    1.38662   1.38662   1.71321   1.71321   1.83283
 Alpha virt. eigenvalues --    2.05755   2.23535   2.23641   2.23641   2.48080
 Alpha virt. eigenvalues --    2.48080   2.53587   2.53587   2.59991   3.01756
 Alpha virt. eigenvalues --    3.01756   3.26295   3.49486   3.49486   3.81387
 Alpha virt. eigenvalues --    3.91293   4.06447   4.06447   4.14106   4.14106
 Alpha virt. eigenvalues --    4.43047   4.45367
          Condensed to atoms (all electrons):
               1          2          3          4          5
     1  H    0.357815   0.438344  -0.000844   0.000039   0.000006
     2  Br   0.438344  34.774006  -0.010327   0.001794   0.000106
     3  N   -0.000844  -0.010327   6.431549   0.693700   0.030041
     4  C    0.000039   0.001794   0.693700   5.106854   0.360621
     5  H    0.000006   0.000106   0.030041   0.360621   0.302817
 Mulliken charges:
               1
     1  H    0.204640
     2  Br  -0.203923
     3  N   -0.144119
     4  C   -0.163007
     5  H    0.306409
 Sum of Mulliken charges =  -0.00000
 Mulliken charges with hydrogens summed into heavy atoms:
               1
     2  Br   0.000717
     3  N   -0.144119
     4  C    0.143401
 Electronic spatial extent (au):  <R**2>=            638.6635
 Charge=             -0.0000 electrons
 Dipole moment (field-independent basis, Debye):
    X=              0.0000    Y=              0.0000    Z=             -2.7890  Tot=              2.7890
 Quadrupole moment (field-independent basis, Debye-Ang):
   XX=            -31.8305   YY=            -31.8305   ZZ=             -4.7903
   XY=              0.0000   XZ=              0.0000   YZ=              0.0000
 Traceless Quadrupole moment (field-independent basis, Debye-Ang):
   XX=             -9.0134   YY=             -9.0134   ZZ=             18.0268
   XY=              0.0000   XZ=              0.0000   YZ=              0.0000
 Octapole moment (field-independent basis, Debye-Ang**2):
  XXX=              0.0000  YYY=              0.0000  ZZZ=            -55.9013  XYY=              0.0000
  XXY=              0.0000  XXZ=             10.5248  XZZ=              0.0000  YZZ=              0.0000
  YYZ=             10.5248  XYZ=              0.0000
 Hexadecapole moment (field-independent basis, Debye-Ang**3):
 XXXX=            -35.5048 YYYY=            -35.5048 ZZZZ=           -227.1450 XXXY=              0.0000
 XXXZ=              0.0000 YYYX=              0.0000 YYYZ=              0.0000 ZZZX=              0.0000
 ZZZY=              0.0000 XXYY=            -11.8349 XXZZ=           -135.6947 YYZZ=           -135.6947
 XXYZ=              0.0000 YYXZ=              0.0000 ZZXY=              0.0000
 N-N= 1.070765851549D+02 E-N=-6.586760471389D+03  KE= 2.664606962294D+03
 Symmetry A1   KE= 1.950295209899D+03
 Symmetry A2   KE= 4.304865724254D+01
 Symmetry B1   KE= 3.356315475761D+02
 Symmetry B2   KE= 3.356315475761D+02
 Leave Link  601 at Wed May 12 01:35:47 2021, MaxMem= 13421772800 cpu:               4.4 elap:               0.2
 (Enter /cm/shared/apps/gaussian/g16/C01/g16/l608.exe)
 IExCor= 1009 DFT=T Ex+Corr=PBEQIDH ExCW=0 ScaHFX=  0.690000
 ScaDFX=  0.310000  0.310000  0.666600  0.666600 ScalE2=  0.333400  0.333400
 IRadAn=      4 IRanWt=     -1 IRanGd=            0 ICorTp=0 IEmpDi=  4
 A total of   1 models will be applied.

 Results using SCF Density:
 FoFJK:  IHMeth= 0 ICntrl=     500 DoSepK=F KAlg= 0 I1Cent=           0 FoldK=F
 IRaf=         0 NMat=       1 IRICut=       1 DoRegI=T DoRafI=F ISym2E= 0 IDoP0=0 IntGTp=1.
 FoFCou: FMM=F IPFlag=           8 FMFlag=           0 FMFlg1=           0
         NFxFlg=           0 DoJE=F BraDBF=F KetDBF=F FulRan=T
         wScrn=  0.000000 ICntrl=       500 IOpCl=  1 I1Cent=           0 NGrid=           0
         NMat0=    1 NMatS0=      1 NMatT0=    0 NMatD0=    1 NMtDS0=    0 NMtDT0=    0
 Symmetry not used in FoFCou.
 ET= 2664.606962 EV=-6586.760471 EJ= 1251.560694 EK= -101.972137 ENuc=  107.076585

 A=0 I=   1 IExCor= 1009 IRadAn=       4 ScaHFX=  0.690000
            ScaDFX=  0.310000  0.310000  0.666600  0.666600
 HFx=  0.000000  0.000000  1.000000  0.000000  0.000000
 DFx=  0.000000  0.000000  1.000000  0.000000  0.000000
 DFc=  0.000000  0.000000  1.000000  0.000000  0.000000
            ENTVJ=-2563.516230 Ex= -101.854540 Ec=   -1.455312 ETotM2e=-3848.0260009204  ETot=-2666.8260815890
 Leave Link  608 at Wed May 12 01:35:48 2021, MaxMem= 13421772800 cpu:               6.8 elap:               0.3
 (Enter /cm/shared/apps/gaussian/g16/C01/g16/l9999.exe)

 Test job not archived.
 1\1\GINC-NODE003\SP\RPBEQIDH-FC\Gen\C1H2Br1N1\TIRRI\12-May-2021\0\\#P 
 PBEQIDH/gen Extralinks=L608 INT=(ultrafine) SCF=tight integral=NoXCTes
 t\\0_dimer DH-SVPD --> H C N Def2-SVPD --> Br\\0,1\H,0,0.,0.,2.481626\
 Br,0,0.,0.,1.060842\N,0,0.,0.,-2.174959\C,0,0.,0.,-3.33131\H,0,0.,0.,-
 4.39852\\Version=ES64L-G16RevC.01\State=1-SG\HF=-2666.8260951\MP2=-266
 7.0363783\RMSD=1.853e-09\PG=C*V [C*(H1C1N1Br1H1)]\\@


 IT WAS A GAME, A VERY INTERESTING GAME ONE COULD
 PLAY.  WHENEVER ONE SOLVED ONE OF THE LITTLE PROBLEMS,
 ONE COULD WRITE A PAPER ABOUT IT.  IT WAS VERY EASY IN
 THOSE DAYS FOR ANY SECOND-RATE PHYSICIST TO DO
 FIRST-RATE WORK.  THERE HAS NOT BEEN SUCH A GLORIOUS
 TIME SINCE.  IT IS VERY DIFFICULT NOW FOR A FIRST-RATE
 PHYSICIST TO DO SECOND-RATE WORK.
     P.A.M. DIRAC, ON THE EARLY DAYS OF QUANTUM MECHANICS
                   DIRECTIONS IN PHYSICS, 1978, P. 7
 Job cpu time:       0 days  0 hours  1 minutes 17.0 seconds.
 Elapsed time:       0 days  0 hours  0 minutes  3.0 seconds.
 File lengths (MBytes):  RWF=     10 Int=      0 D2E=      0 Chk=      2 Scr=      1
 Normal termination of Gaussian 16 at Wed May 12 01:35:48 2021.
