 Entering Gaussian System, Link 0=g16
 Input=monomer_A.com
 Output=monomer_A.log
 Initial command:
 /cm/shared/apps/gaussian/g16/C01/g16/l1.exe "/local/scratch/tirri/Gau-191911.inp" -scrdir="/local/scratch/tirri/"
 Entering Link 1 = /cm/shared/apps/gaussian/g16/C01/g16/l1.exe PID=    191912.
  
 Copyright (c) 1988-2019, Gaussian, Inc.  All Rights Reserved.
  
 This is part of the Gaussian(R) 16 program.  It is based on
 the Gaussian(R) 09 system (copyright 2009, Gaussian, Inc.),
 the Gaussian(R) 03 system (copyright 2003, Gaussian, Inc.),
 the Gaussian(R) 98 system (copyright 1998, Gaussian, Inc.),
 the Gaussian(R) 94 system (copyright 1995, Gaussian, Inc.),
 the Gaussian 92(TM) system (copyright 1992, Gaussian, Inc.),
 the Gaussian 90(TM) system (copyright 1990, Gaussian, Inc.),
 the Gaussian 88(TM) system (copyright 1988, Gaussian, Inc.),
 the Gaussian 86(TM) system (copyright 1986, Carnegie Mellon
 University), and the Gaussian 82(TM) system (copyright 1983,
 Carnegie Mellon University). Gaussian is a federally registered
 trademark of Gaussian, Inc.
  
 This software contains proprietary and confidential information,
 including trade secrets, belonging to Gaussian, Inc.
  
 This software is provided under written license and may be
 used, copied, transmitted, or stored only in accord with that
 written license.
  
 The following legend is applicable only to US Government
 contracts under FAR:
  
                    RESTRICTED RIGHTS LEGEND
  
 Use, reproduction and disclosure by the US Government is
 subject to restrictions as set forth in subparagraphs (a)
 and (c) of the Commercial Computer Software - Restricted
 Rights clause in FAR 52.227-19.
  
 Gaussian, Inc.
 340 Quinnipiac St., Bldg. 40, Wallingford CT 06492
  
  
 ---------------------------------------------------------------
 Warning -- This program may not be used in any manner that
 competes with the business of Gaussian, Inc. or will provide
 assistance to any competitor of Gaussian, Inc.  The licensee
 of this program is prohibited from giving any competitor of
 Gaussian, Inc. access to this program.  By using this program,
 the user acknowledges that Gaussian, Inc. is engaged in the
 business of creating and licensing software in the field of
 computational chemistry and represents and warrants to the
 licensee that it is not a competitor of Gaussian, Inc. and that
 it will not use this program in any manner prohibited above.
 ---------------------------------------------------------------
  

 Cite this work as:
 Gaussian 16, Revision C.01,
 M. J. Frisch, G. W. Trucks, H. B. Schlegel, G. E. Scuseria, 
 M. A. Robb, J. R. Cheeseman, G. Scalmani, V. Barone, 
 G. A. Petersson, H. Nakatsuji, X. Li, M. Caricato, A. V. Marenich, 
 J. Bloino, B. G. Janesko, R. Gomperts, B. Mennucci, H. P. Hratchian, 
 J. V. Ortiz, A. F. Izmaylov, J. L. Sonnenberg, D. Williams-Young, 
 F. Ding, F. Lipparini, F. Egidi, J. Goings, B. Peng, A. Petrone, 
 T. Henderson, D. Ranasinghe, V. G. Zakrzewski, J. Gao, N. Rega, 
 G. Zheng, W. Liang, M. Hada, M. Ehara, K. Toyota, R. Fukuda, 
 J. Hasegawa, M. Ishida, T. Nakajima, Y. Honda, O. Kitao, H. Nakai, 
 T. Vreven, K. Throssell, J. A. Montgomery, Jr., J. E. Peralta, 
 F. Ogliaro, M. J. Bearpark, J. J. Heyd, E. N. Brothers, K. N. Kudin, 
 V. N. Staroverov, T. A. Keith, R. Kobayashi, J. Normand, 
 K. Raghavachari, A. P. Rendell, J. C. Burant, S. S. Iyengar, 
 J. Tomasi, M. Cossi, J. M. Millam, M. Klene, C. Adamo, R. Cammi, 
 J. W. Ochterski, R. L. Martin, K. Morokuma, O. Farkas, 
 J. B. Foresman, and D. J. Fox, Gaussian, Inc., Wallingford CT, 2019.
 
 ******************************************
 Gaussian 16:  ES64L-G16RevC.01  3-Jul-2019
                12-May-2021 
 ******************************************
 %CHK=monomer_A.chk
 %MEM=100GB
 %Nprocs=32
 Will use up to   32 processors via shared memory.
 ----------------------------------------------------------------------
 #P PBEQIDH/gen Extralinks=L608 INT=(ultrafine) SCF=tight integral=NoXC
 Test
 ----------------------------------------------------------------------
 1/38=1,172=1/1;
 2/12=2,17=6,18=5,40=1/2;
 3/5=7,11=9,25=1,30=1,47=8,74=-79,75=-5/1,2,3;
 4//1;
 5/5=2,32=2,38=5/2;
 8/10=1/1;
 9/16=-3/6;
 6/7=2,8=2,9=2,10=2/1,8;
 99/5=1,9=1/99;
 Leave Link    1 at Wed May 12 01:35:48 2021, MaxMem= 13421772800 cpu:               0.8 elap:               0.0
 (Enter /cm/shared/apps/gaussian/g16/C01/g16/l101.exe)
 ----------------------------------------------
 0_monomer_A DH-SVPD --> H C N Def2-SVPD --> Br
 ----------------------------------------------
 Symbolic Z-matrix:
 Charge =  0 Multiplicity = 1
 H                     0.        0.        2.48163 
 Br                    0.        0.        1.06084 
 
 ITRead=  0  0
 MicOpt= -1 -1
 NAtoms=      2 NQM=        2 NQMF=       0 NMMI=      0 NMMIF=      0
                NMic=       0 NMicF=      0.
                    Isotopes and Nuclear Properties:
 (Nuclear quadrupole moments (NQMom) in fm**2, nuclear magnetic moments (NMagM)
  in nuclear magnetons)

  Atom         1           2
 IAtWgt=           1          79
 AtmWgt=   1.0078250  78.9183361
 NucSpn=           1           3
 AtZEff=  -0.0000000  -0.0000000
 NQMom=    0.0000000  31.3000000
 NMagM=    2.7928460   2.1063990
 AtZNuc=   1.0000000  35.0000000
 Leave Link  101 at Wed May 12 01:35:48 2021, MaxMem= 13421772800 cpu:               2.8 elap:               0.1
 (Enter /cm/shared/apps/gaussian/g16/C01/g16/l202.exe)
                          Input orientation:                          
 ---------------------------------------------------------------------
 Center     Atomic      Atomic             Coordinates (Angstroms)
 Number     Number       Type             X           Y           Z
 ---------------------------------------------------------------------
      1          1           0        0.000000    0.000000    2.481626
      2         35           0        0.000000    0.000000    1.060842
 ---------------------------------------------------------------------
 Stoichiometry    BrH
 Framework group  C*V[C*(HBr)]
 Deg. of freedom     1
 Full point group                 C*V     NOp   4
 Largest Abelian subgroup         C2V     NOp   4
 Largest concise Abelian subgroup C1      NOp   1
                         Standard orientation:                         
 ---------------------------------------------------------------------
 Center     Atomic      Atomic             Coordinates (Angstroms)
 Number     Number       Type             X           Y           Z
 ---------------------------------------------------------------------
      1          1           0        0.000000    0.000000   -1.381318
      2         35           0        0.000000    0.000000    0.039466
 ---------------------------------------------------------------------
 Rotational constants (GHZ):           0.0000000         251.5862925         251.5862925
 Leave Link  202 at Wed May 12 01:35:48 2021, MaxMem= 13421772800 cpu:               0.9 elap:               0.1
 (Enter /cm/shared/apps/gaussian/g16/C01/g16/l301.exe)
 General basis read from cards:  (5D, 7F)
 Centers:       2
 S 6 1.00
     Exponent=  1.1328638776D+05 Coefficients=  1.4283037779D-03
     Exponent=  1.7009626303D+04 Coefficients=  1.0950417496D-02
     Exponent=  3.8701842567D+03 Coefficients=  5.4421006604D-02
     Exponent=  1.0930357227D+03 Coefficients=  1.9047907695D-01
     Exponent=  3.5639721797D+02 Coefficients=  3.9024642737D-01
     Exponent=  1.2312539643D+02 Coefficients=  3.0814432514D-01
 S 3 1.00
     Exponent=  2.3674084007D+02 Coefficients= -1.1228065671D-01
     Exponent=  2.8468661070D+01 Coefficients=  6.4775962312D-01
     Exponent=  1.1883443722D+01 Coefficients=  4.4235575986D-01
 S 3 1.00
     Exponent=  2.1269633312D+01 Coefficients= -2.2642576323D-01
     Exponent=  3.6129226841D+00 Coefficients=  7.3823712008D-01
     Exponent=  1.6626648969D+00 Coefficients=  4.2683868694D-01
 S 1 1.00
     Exponent=  3.4823793232D-01 Coefficients=  1.0000000000D+00
 S 1 1.00
     Exponent=  1.3019031394D-01 Coefficients=  1.0000000000D+00
 S 1 1.00
     Exponent=  5.0966709763D-02 Coefficients=  1.0000000000D+00
 P 5 1.00
     Exponent=  1.5602801881D+03 Coefficients=  8.7166669072D-03
     Exponent=  3.6847859205D+02 Coefficients=  6.6243637420D-02
     Exponent=  1.1722978849D+02 Coefficients=  2.6495610385D-01
     Exponent=  4.2648909248D+01 Coefficients=  5.3839160587D-01
     Exponent=  1.6087225096D+01 Coefficients=  3.6579387888D-01
 P 3 1.00
     Exponent=  8.6352810058D+00 Coefficients=  3.4248787366D-01
     Exponent=  3.5613665502D+00 Coefficients=  5.7500678213D-01
     Exponent=  1.5292626609D+00 Coefficients=  2.4330394172D-01
 P 1 1.00
     Exponent=  5.3064294848D-01 Coefficients=  1.0000000000D+00
 P 1 1.00
     Exponent=  1.5702758965D-01 Coefficients=  1.0000000000D+00
 P 1 1.00
     Exponent=  9.2539109970D-02 Coefficients=  1.0000000000D+00
 D 4 1.00
     Exponent=  1.0485518642D+02 Coefficients=  2.2650147581D-02
     Exponent=  3.0281143688D+01 Coefficients=  1.3455483230D-01
     Exponent=  1.0651394267D+01 Coefficients=  3.6474454537D-01
     Exponent=  3.8699456233D+00 Coefficients=  4.9044587056D-01
 D 1 1.00
     Exponent=  1.3240876762D+00 Coefficients=  2.7137289040D-01
 D 1 1.00
     Exponent=  3.8900000000D-01 Coefficients=  1.0000000000D+00
 D 1 1.00
     Exponent=  1.6579741459D-01 Coefficients=  1.0000000000D+00
 ****
 Centers:       1
 s 3 1.00
     Exponent=  1.3010701000D+01 Coefficients=  1.9682158000D-02
     Exponent=  1.9622572000D+00 Coefficients=  1.3796524000D-01
     Exponent=  4.4453796000D-01 Coefficients=  4.7831935000D-01
 S 1 1.00
     Exponent=  4.6178678500D-01 Coefficients=  1.0000000000D+00
 P 1 1.00
     Exponent=  8.0000000000D-01 Coefficients=  1.0000000000D+00
 P 1 1.00
     Exponent=  7.9134024200D-02 Coefficients=  1.0000000000D+00
 ****
 Ernie: Thresh=  0.10000D-02 Tol=  0.10000D-05 Strict=F.
 There are    27 symmetry adapted cartesian basis functions of A1  symmetry.
 There are     4 symmetry adapted cartesian basis functions of A2  symmetry.
 There are    11 symmetry adapted cartesian basis functions of B1  symmetry.
 There are    11 symmetry adapted cartesian basis functions of B2  symmetry.
 There are    23 symmetry adapted basis functions of A1  symmetry.
 There are     4 symmetry adapted basis functions of A2  symmetry.
 There are    11 symmetry adapted basis functions of B1  symmetry.
 There are    11 symmetry adapted basis functions of B2  symmetry.
    49 basis functions,   100 primitive gaussians,    53 cartesian basis functions
    18 alpha electrons       18 beta electrons
       nuclear repulsion energy        13.0359029819 Hartrees.
 IExCor= 1009 DFT=T Ex+Corr=PBEQIDH ExCW=0 ScaHFX=  0.690000
 ScaDFX=  0.310000  0.310000  0.666600  0.666600 ScalE2=  0.333400  0.333400
 IRadAn=      5 IRanWt=     -1 IRanGd=            0 ICorTp=0 IEmpDi=  4
 NAtoms=    2 NActive=    2 NUniq=    2 SFac= 1.00D+00 NAtFMM=   60 NAOKFM=F Big=F
 Integral buffers will be    131072 words long.
 Regular integral format.
 Two-electron integral symmetry is turned on.
 Leave Link  301 at Wed May 12 01:35:48 2021, MaxMem= 13421772800 cpu:               2.2 elap:               0.1
 (Enter /cm/shared/apps/gaussian/g16/C01/g16/l302.exe)
 NPDir=0 NMtPBC=     1 NCelOv=     1 NCel=       1 NClECP=     1 NCelD=      1
         NCelK=      1 NCelE2=     1 NClLst=     1 CellRange=     0.0.
 One-electron integrals computed using PRISM.
 One-electron integral symmetry used in STVInt
 NBasis=    49 RedAO= T EigKep=  1.08D-02  NBF=    23     4    11    11
 NBsUse=    49 1.00D-06 EigRej= -1.00D+00 NBFU=    23     4    11    11
 Precomputing XC quadrature grid using
 IXCGrd= 4 IRadAn=           5 IRanWt=          -1 IRanGd=           0 AccXCQ= 0.00D+00.
 Generated NRdTot=       0 NPtTot=           0 NUsed=           0 NTot=          32
 NSgBfM=    53    53    53    53    53 MxSgAt=     2 MxSgA2=     2.
 Leave Link  302 at Wed May 12 01:35:48 2021, MaxMem= 13421772800 cpu:               3.6 elap:               0.1
 (Enter /cm/shared/apps/gaussian/g16/C01/g16/l303.exe)
 DipDrv:  MaxL=1.
 Leave Link  303 at Wed May 12 01:35:48 2021, MaxMem= 13421772800 cpu:               1.3 elap:               0.1
 (Enter /cm/shared/apps/gaussian/g16/C01/g16/l401.exe)
 ExpMin= 5.10D-02 ExpMax= 1.13D+05 ExpMxC= 1.70D+04 IAcc=3 IRadAn=         5 AccDes= 0.00D+00
 Harris functional with IExCor= 1009 and IRadAn=       5 diagonalized for initial guess.
 HarFok:  IExCor= 1009 AccDes= 0.00D+00 IRadAn=         5 IDoV= 1 UseB2=F ITyADJ=14
 ICtDFT=  3500011 ScaDFX=  1.000000  1.000000  1.000000  1.000000
 FoFCou: FMM=F IPFlag=           8 FMFlag=      100000 FMFlg1=           0
         NFxFlg=           0 DoJE=T BraDBF=F KetDBF=T FulRan=T
         wScrn=  0.000000 ICntrl=       500 IOpCl=  0 I1Cent=   200000004 NGrid=           0
         NMat0=    1 NMatS0=      1 NMatT0=    0 NMatD0=    1 NMtDS0=    0 NMtDT0=    0
 Petite list used in FoFCou.
 Harris En= -2574.06155034466    
 JPrj=0 DoOrth=F DoCkMO=F.
 Initial guess orbital symmetries:
       Occupied  (SG) (SG) (SG) (PI) (PI) (SG) (SG) (PI) (PI) (SG)
                 (PI) (PI) (DLTA) (DLTA) (SG) (SG) (PI) (PI)
       Virtual   (SG) (SG) (PI) (PI) (SG) (PI) (PI) (DLTA) (DLTA)
                 (SG) (PI) (PI) (SG) (SG) (SG) (DLTA) (DLTA) (PI)
                 (PI) (PI) (PI) (SG) (PI) (PI) (SG) (SG) (DLTA)
                 (DLTA) (PI) (PI) (SG)
 The electronic state of the initial guess is 1-SG.
 Leave Link  401 at Wed May 12 01:35:49 2021, MaxMem= 13421772800 cpu:               7.2 elap:               0.3
 (Enter /cm/shared/apps/gaussian/g16/C01/g16/l502.exe)
 Keep R1 ints in memory in symmetry-blocked form, NReq=28811773.
 FoFCou: FMM=F IPFlag=           8 FMFlag=           0 FMFlg1=           0
         NFxFlg=           0 DoJE=F BraDBF=F KetDBF=F FulRan=T
         wScrn=  0.000000 ICntrl=       600 IOpCl=  0 I1Cent=           0 NGrid=           0
         NMat0=    1 NMatS0=   1225 NMatT0=    0 NMatD0=    1 NMtDS0=    0 NMtDT0=    0
 Petite list used in FoFCou.
 Closed shell SCF:
 Using DIIS extrapolation, IDIIS=  1040.
 NGot= 13421772800 LenX= 13421561430 LenY= 13421558180
 Requested convergence on RMS density matrix=1.00D-08 within 128 cycles.
 Requested convergence on MAX density matrix=1.00D-06.
 Requested convergence on             energy=1.00D-06.
 No special actions if energy rises.
 Integral accuracy reduced to 1.0D-05 until final iterations.

 Cycle   1  Pass 0  IDiag  1:
 E= -2573.69727267996    
 DIIS: error= 4.33D-02 at cycle   1 NSaved=   1.
 NSaved= 1 IEnMin= 1 EnMin= -2573.69727267996     IErMin= 1 ErrMin= 4.33D-02
 ErrMax= 4.33D-02  0.00D+00 EMaxC= 1.00D-01 BMatC= 1.64D-01 BMatP= 1.64D-01
 IDIUse=3 WtCom= 5.67D-01 WtEn= 4.33D-01
 Coeff-Com:  0.100D+01
 Coeff-En:   0.100D+01
 Coeff:      0.100D+01
 Gap=     0.462 Goal=   None    Shift=    0.000
 GapD=    0.462 DampG=2.000 DampE=0.500 DampFc=1.0000 IDamp=-1.
 RMSDP=5.53D-03 MaxDP=6.56D-02              OVMax= 2.13D-02

 Cycle   2  Pass 0  IDiag  1:
 E= -2573.72214088539     Delta-E=       -0.024868205433 Rises=F Damp=F
 DIIS: error= 2.36D-02 at cycle   2 NSaved=   2.
 NSaved= 2 IEnMin= 2 EnMin= -2573.72214088539     IErMin= 2 ErrMin= 2.36D-02
 ErrMax= 2.36D-02  0.00D+00 EMaxC= 1.00D-01 BMatC= 3.45D-02 BMatP= 1.64D-01
 IDIUse=3 WtCom= 7.64D-01 WtEn= 2.36D-01
 Coeff-Com:  0.307D+00 0.693D+00
 Coeff-En:   0.000D+00 0.100D+01
 Coeff:      0.234D+00 0.766D+00
 Gap=     0.425 Goal=   None    Shift=    0.000
 RMSDP=2.23D-03 MaxDP=4.78D-02 DE=-2.49D-02 OVMax= 1.42D-02

 Cycle   3  Pass 0  IDiag  1:
 E= -2573.73024122965     Delta-E=       -0.008100344257 Rises=F Damp=F
 DIIS: error= 4.30D-03 at cycle   3 NSaved=   3.
 NSaved= 3 IEnMin= 3 EnMin= -2573.73024122965     IErMin= 3 ErrMin= 4.30D-03
 ErrMax= 4.30D-03  0.00D+00 EMaxC= 1.00D-01 BMatC= 1.35D-03 BMatP= 3.45D-02
 IDIUse=3 WtCom= 9.57D-01 WtEn= 4.30D-02
 Coeff-Com: -0.193D-02 0.160D+00 0.842D+00
 Coeff-En:   0.000D+00 0.000D+00 0.100D+01
 Coeff:     -0.185D-02 0.153D+00 0.848D+00
 Gap=     0.435 Goal=   None    Shift=    0.000
 RMSDP=5.51D-04 MaxDP=1.12D-02 DE=-8.10D-03 OVMax= 4.14D-03

 Cycle   4  Pass 0  IDiag  1:
 E= -2573.73067276769     Delta-E=       -0.000431538043 Rises=F Damp=F
 DIIS: error= 3.34D-04 at cycle   4 NSaved=   4.
 NSaved= 4 IEnMin= 4 EnMin= -2573.73067276769     IErMin= 4 ErrMin= 3.34D-04
 ErrMax= 3.34D-04  0.00D+00 EMaxC= 1.00D-01 BMatC= 1.10D-05 BMatP= 1.35D-03
 IDIUse=3 WtCom= 9.97D-01 WtEn= 3.34D-03
 Coeff-Com: -0.282D-02 0.138D-01 0.164D+00 0.825D+00
 Coeff-En:   0.000D+00 0.000D+00 0.000D+00 0.100D+01
 Coeff:     -0.281D-02 0.138D-01 0.163D+00 0.826D+00
 Gap=     0.433 Goal=   None    Shift=    0.000
 RMSDP=7.16D-05 MaxDP=1.51D-03 DE=-4.32D-04 OVMax= 1.47D-03

 Cycle   5  Pass 0  IDiag  1:
 E= -2573.73068086877     Delta-E=       -0.000008101074 Rises=F Damp=F
 DIIS: error= 7.77D-05 at cycle   5 NSaved=   5.
 NSaved= 5 IEnMin= 5 EnMin= -2573.73068086877     IErMin= 5 ErrMin= 7.77D-05
 ErrMax= 7.77D-05  0.00D+00 EMaxC= 1.00D-01 BMatC= 1.45D-07 BMatP= 1.10D-05
 IDIUse=1 WtCom= 1.00D+00 WtEn= 0.00D+00
 Coeff-Com: -0.340D-03-0.299D-02-0.281D-02 0.132D+00 0.874D+00
 Coeff:     -0.340D-03-0.299D-02-0.281D-02 0.132D+00 0.874D+00
 Gap=     0.433 Goal=   None    Shift=    0.000
 RMSDP=8.91D-06 MaxDP=8.34D-05 DE=-8.10D-06 OVMax= 2.07D-04

 Initial convergence to 1.0D-05 achieved.  Increase integral accuracy.
 Cycle   6  Pass 1  IDiag  1:
 E= -2573.73068490286     Delta-E=       -0.000004034092 Rises=F Damp=F
 DIIS: error= 1.73D-05 at cycle   1 NSaved=   1.
 NSaved= 1 IEnMin= 1 EnMin= -2573.73068490286     IErMin= 1 ErrMin= 1.73D-05
 ErrMax= 1.73D-05  0.00D+00 EMaxC= 1.00D-01 BMatC= 7.70D-09 BMatP= 7.70D-09
 IDIUse=1 WtCom= 1.00D+00 WtEn= 0.00D+00
 Coeff-Com:  0.100D+01
 Coeff:      0.100D+01
 Gap=     0.433 Goal=   None    Shift=    0.000
 RMSDP=8.91D-06 MaxDP=8.34D-05 DE=-4.03D-06 OVMax= 8.08D-05

 Cycle   7  Pass 1  IDiag  1:
 E= -2573.73068491717     Delta-E=       -0.000000014314 Rises=F Damp=F
 DIIS: error= 6.77D-06 at cycle   2 NSaved=   2.
 NSaved= 2 IEnMin= 2 EnMin= -2573.73068491717     IErMin= 2 ErrMin= 6.77D-06
 ErrMax= 6.77D-06  0.00D+00 EMaxC= 1.00D-01 BMatC= 1.37D-09 BMatP= 7.70D-09
 IDIUse=1 WtCom= 1.00D+00 WtEn= 0.00D+00
 Coeff-Com:  0.206D+00 0.794D+00
 Coeff:      0.206D+00 0.794D+00
 Gap=     0.433 Goal=   None    Shift=    0.000
 RMSDP=7.01D-07 MaxDP=7.20D-06 DE=-1.43D-08 OVMax= 1.77D-05

 Cycle   8  Pass 1  IDiag  1:
 E= -2573.73068491899     Delta-E=       -0.000000001814 Rises=F Damp=F
 DIIS: error= 2.15D-06 at cycle   3 NSaved=   3.
 NSaved= 3 IEnMin= 3 EnMin= -2573.73068491899     IErMin= 3 ErrMin= 2.15D-06
 ErrMax= 2.15D-06  0.00D+00 EMaxC= 1.00D-01 BMatC= 1.23D-10 BMatP= 1.37D-09
 IDIUse=1 WtCom= 1.00D+00 WtEn= 0.00D+00
 Coeff-Com: -0.126D+00-0.903D-02 0.113D+01
 Coeff:     -0.126D+00-0.903D-02 0.113D+01
 Gap=     0.433 Goal=   None    Shift=    0.000
 RMSDP=4.36D-07 MaxDP=4.56D-06 DE=-1.81D-09 OVMax= 1.32D-05

 Cycle   9  Pass 1  IDiag  1:
 E= -2573.73068491932     Delta-E=       -0.000000000333 Rises=F Damp=F
 DIIS: error= 3.03D-07 at cycle   4 NSaved=   4.
 NSaved= 4 IEnMin= 4 EnMin= -2573.73068491932     IErMin= 4 ErrMin= 3.03D-07
 ErrMax= 3.03D-07  0.00D+00 EMaxC= 1.00D-01 BMatC= 2.34D-12 BMatP= 1.23D-10
 IDIUse=1 WtCom= 1.00D+00 WtEn= 0.00D+00
 Coeff-Com: -0.261D-01-0.178D-01 0.120D+00 0.924D+00
 Coeff:     -0.261D-01-0.178D-01 0.120D+00 0.924D+00
 Gap=     0.433 Goal=   None    Shift=    0.000
 RMSDP=6.08D-08 MaxDP=1.05D-06 DE=-3.33D-10 OVMax= 1.59D-06

 Cycle  10  Pass 1  IDiag  1:
 E= -2573.73068491934     Delta-E=       -0.000000000015 Rises=F Damp=F
 DIIS: error= 3.75D-08 at cycle   5 NSaved=   5.
 NSaved= 5 IEnMin= 5 EnMin= -2573.73068491934     IErMin= 5 ErrMin= 3.75D-08
 ErrMax= 3.75D-08  0.00D+00 EMaxC= 1.00D-01 BMatC= 5.47D-14 BMatP= 2.34D-12
 IDIUse=1 WtCom= 1.00D+00 WtEn= 0.00D+00
 Coeff-Com:  0.577D-02 0.165D-02-0.428D-01-0.515D-01 0.109D+01
 Coeff:      0.577D-02 0.165D-02-0.428D-01-0.515D-01 0.109D+01
 Gap=     0.433 Goal=   None    Shift=    0.000
 RMSDP=1.05D-08 MaxDP=1.71D-07 DE=-1.50D-11 OVMax= 1.73D-07

 Cycle  11  Pass 1  IDiag  1:
 E= -2573.73068491933     Delta-E=        0.000000000006 Rises=F Damp=F
 DIIS: error= 1.21D-08 at cycle   6 NSaved=   6.
 NSaved= 6 IEnMin= 5 EnMin= -2573.73068491934     IErMin= 6 ErrMin= 1.21D-08
 ErrMax= 1.21D-08  0.00D+00 EMaxC= 1.00D-01 BMatC= 9.00D-15 BMatP= 5.47D-14
 IDIUse=1 WtCom= 1.00D+00 WtEn= 0.00D+00
 Coeff-Com:  0.271D-02 0.958D-03-0.147D-01-0.689D-01 0.350D+00 0.730D+00
 Coeff:      0.271D-02 0.958D-03-0.147D-01-0.689D-01 0.350D+00 0.730D+00
 Gap=     0.433 Goal=   None    Shift=    0.000
 RMSDP=2.19D-09 MaxDP=2.87D-08 DE= 6.37D-12 OVMax= 3.78D-08

 SCF Done:  E(RPBEQIDH) =  -2573.73068492     A.U. after   11 cycles
            NFock= 11  Conv=0.22D-08     -V/T= 2.0006
 KE= 2.572218687814D+03 PE=-6.180900832979D+03 EE= 1.021915557264D+03
 Leave Link  502 at Wed May 12 01:35:49 2021, MaxMem= 13421772800 cpu:               8.3 elap:               0.3
 (Enter /cm/shared/apps/gaussian/g16/C01/g16/l801.exe)
 DoSCS=T DFT=T ScalE2(SS,OS)=  0.333400  0.333400
 ExpMin= 5.10D-02 ExpMax= 1.13D+05 ExpMxC= 1.70D+04 IAcc=3 IRadAn=         5 AccDes= 0.00D+00
 HarFok:  IExCor=  205 AccDes= 0.00D+00 IRadAn=         5 IDoV=-2 UseB2=F ITyADJ=14
 ICtDFT= 12500011 ScaDFX=  1.000000  1.000000  1.000000  1.000000
 Largest valence mixing into a core orbital is  2.30D-05
 Largest core mixing into a valence orbital is  1.28D-05
 Range of M.O.s used for correlation:    10    49
 NBasis=    49 NAE=    18 NBE=    18 NFC=     9 NFV=     0
 NROrb=     40 NOA=     9 NOB=     9 NVA=    31 NVB=    31
 Leave Link  801 at Wed May 12 01:35:49 2021, MaxMem= 13421772800 cpu:               3.3 elap:               0.1
 (Enter /cm/shared/apps/gaussian/g16/C01/g16/l906.exe)
 DoSCS=T DFT=T ScalE2(SS,OS)=  0.333400  0.333400
 FulOut=F Deriv=F AODrv=F NAtomX=     2
   MMem=       22546  MDisk=           9 MDiskD=           9
  W3Min=       14787 MinDsk=       82552 NBas6D=          53
 NBas2D=        1512    NTT=        1431    LW2=     2000000
    MDV= 13421745776 MDiskM=     3516704 NBas2p=        1512
 Fully in-core method, ICMem=     8435445.
 IMap=   1   2   3   4   5   6   7   8   9
 JobTyp=1 Pass  1 fully in-core, NPsUse= 32.
 Compute canonical integrals.
 FoFCou: FMM=F IPFlag=           8 FMFlag=           0 FMFlg1=           0
         NFxFlg=           0 DoJE=F BraDBF=F KetDBF=F FulRan=T
         wScrn=  0.000000 ICntrl=       600 IOpCl=  1 I1Cent=           0 NGrid=           0
         NMat0=    1 NMatS0=   1512 NMatT0=    0 NMatD0=    1 NMtDS0=    0 NMtDT0=    0
 Symmetry not used in FoFCou.
 Spin components of T(2) and E(2):
     alpha-alpha T2 =       0.1235323289D-01 E2=     -0.1413211952D-01
     alpha-beta  T2 =       0.6528706227D-01 E2=     -0.6463475872D-01
     beta-beta   T2 =       0.1235323289D-01 E2=     -0.1413211952D-01
 The integrals were generated   1 times.
 E2(PBEQIDH) =    -0.9289899776D-01 E(PBEQIDH) =    -0.25738235839171D+04
 Leave Link  906 at Wed May 12 01:35:49 2021, MaxMem= 13421772800 cpu:               7.7 elap:               0.3
 (Enter /cm/shared/apps/gaussian/g16/C01/g16/l601.exe)
 Copying SCF densities to generalized density rwf, IOpCl= 0 IROHF=0.

 **********************************************************************

            Population analysis using the SCF Density.

 **********************************************************************

 Orbital symmetries:
       Occupied  (SG) (SG) (SG) (PI) (PI) (SG) (SG) (PI) (PI) (SG)
                 (PI) (PI) (DLTA) (DLTA) (SG) (SG) (PI) (PI)
       Virtual   (SG) (SG) (PI) (PI) (SG) (PI) (PI) (SG) (DLTA)
                 (DLTA) (PI) (PI) (SG) (SG) (SG) (DLTA) (DLTA)
                 (PI) (PI) (PI) (PI) (SG) (PI) (PI) (SG) (SG) (DLTA)
                 (DLTA) (PI) (PI) (SG)
 The electronic state is 1-SG.
 Alpha  occ. eigenvalues -- -487.18441 -64.12523 -57.66879 -57.66659 -57.66659
 Alpha  occ. eigenvalues --   -9.42084  -7.11834  -7.10832  -7.10832  -3.00200
 Alpha  occ. eigenvalues --   -2.99785  -2.99785  -2.98846  -2.98846  -0.95209
 Alpha  occ. eigenvalues --   -0.54049  -0.39555  -0.39555
 Alpha virt. eigenvalues --    0.03789   0.11859   0.15299   0.15299   0.18960
 Alpha virt. eigenvalues --    0.24134   0.24134   0.29816   0.32204   0.32204
 Alpha virt. eigenvalues --    0.41013   0.41013   0.61465   0.70376   0.98022
 Alpha virt. eigenvalues --    1.05244   1.05244   1.07233   1.07233   1.13677
 Alpha virt. eigenvalues --    1.13677   1.17460   1.69025   1.69025   2.20381
 Alpha virt. eigenvalues --    3.79023   4.04348   4.04348   4.10696   4.10696
 Alpha virt. eigenvalues --    4.30610
          Condensed to atoms (all electrons):
               1          2
     1  H    0.352976   0.430467
     2  Br   0.430467  34.786090
 Mulliken charges:
               1
     1  H    0.216557
     2  Br  -0.216557
 Sum of Mulliken charges =  -0.00000
 Mulliken charges with hydrogens summed into heavy atoms:
               1
     2  Br  -0.000000
 Electronic spatial extent (au):  <R**2>=             48.0890
 Charge=             -0.0000 electrons
 Dipole moment (field-independent basis, Debye):
    X=              0.0000    Y=              0.0000    Z=             -0.9418  Tot=              0.9418
 Quadrupole moment (field-independent basis, Debye-Ang):
   XX=            -19.8868   YY=            -19.8868   ZZ=            -15.4813
   XY=              0.0000   XZ=              0.0000   YZ=              0.0000
 Traceless Quadrupole moment (field-independent basis, Debye-Ang):
   XX=             -1.4685   YY=             -1.4685   ZZ=              2.9370
   XY=              0.0000   XZ=              0.0000   YZ=              0.0000
 Octapole moment (field-independent basis, Debye-Ang**2):
  XXX=              0.0000  YYY=              0.0000  ZZZ=             -1.4530  XYY=              0.0000
  XXY=              0.0000  XXZ=              0.5153  XZZ=              0.0000  YZZ=              0.0000
  YYZ=              0.5153  XYZ=              0.0000
 Hexadecapole moment (field-independent basis, Debye-Ang**3):
 XXXX=            -23.4718 YYYY=            -23.4718 ZZZZ=            -20.6241 XXXY=              0.0000
 XXXZ=              0.0000 YYYX=              0.0000 YYYZ=              0.0000 ZZZX=              0.0000
 ZZZY=              0.0000 XXYY=             -7.8239 XXZZ=             -8.4460 YYZZ=             -8.4460
 XXYZ=              0.0000 YYXZ=              0.0000 ZZXY=              0.0000
 N-N= 1.303590298187D+01 E-N=-6.180900830463D+03  KE= 2.572218687814D+03
 Symmetry A1   KE= 1.863412807249D+03
 Symmetry A2   KE= 4.304880399698D+01
 Symmetry B1   KE= 3.328785382838D+02
 Symmetry B2   KE= 3.328785382838D+02
 Leave Link  601 at Wed May 12 01:35:49 2021, MaxMem= 13421772800 cpu:               0.7 elap:               0.0
 (Enter /cm/shared/apps/gaussian/g16/C01/g16/l608.exe)
 IExCor= 1009 DFT=T Ex+Corr=PBEQIDH ExCW=0 ScaHFX=  0.690000
 ScaDFX=  0.310000  0.310000  0.666600  0.666600 ScalE2=  0.333400  0.333400
 IRadAn=      4 IRanWt=     -1 IRanGd=            0 ICorTp=0 IEmpDi=  4
 A total of   1 models will be applied.

 Results using SCF Density:
 FoFJK:  IHMeth= 0 ICntrl=     500 DoSepK=F KAlg= 0 I1Cent=           0 FoldK=F
 IRaf=         0 NMat=       1 IRICut=       1 DoRegI=T DoRafI=F ISym2E= 0 IDoP0=0 IntGTp=1.
 FoFCou: FMM=F IPFlag=           8 FMFlag=           0 FMFlg1=           0
         NFxFlg=           0 DoJE=F BraDBF=F KetDBF=F FulRan=T
         wScrn=  0.000000 ICntrl=       500 IOpCl=  1 I1Cent=           0 NGrid=           0
         NMat0=    1 NMatS0=      1 NMatT0=    0 NMatD0=    1 NMtDS0=    0 NMtDT0=    0
 Symmetry not used in FoFCou.
 ET= 2572.218688 EV=-6180.900830 EJ= 1112.923803 EK=  -89.964309 ENuc=   13.035903

 A=0 I=   1 IExCor= 1009 IRadAn=       4 ScaHFX=  0.690000
            ScaDFX=  0.310000  0.310000  0.666600  0.666600
 HFx=  0.000000  0.000000  1.000000  0.000000  0.000000
 DFx=  0.000000  0.000000  1.000000  0.000000  0.000000
 DFc=  0.000000  0.000000  1.000000  0.000000  0.000000
            ENTVJ=-2482.722436 Ex=  -89.848221 Ec=   -1.160024 ETotM2e=-3624.5791111011  ETot=-2573.7306811154
 Leave Link  608 at Wed May 12 01:35:50 2021, MaxMem= 13421772800 cpu:               5.7 elap:               0.2
 (Enter /cm/shared/apps/gaussian/g16/C01/g16/l9999.exe)

 Test job not archived.
 1\1\GINC-NODE003\SP\RPBEQIDH-FC\Gen\Br1H1\TIRRI\12-May-2021\0\\#P PBEQ
 IDH/gen Extralinks=L608 INT=(ultrafine) SCF=tight integral=NoXCTest\\0
 _monomer_A DH-SVPD --> H C N Def2-SVPD --> Br\\0,1\H,0,0.,0.,2.481626\
 Br,0,0.,0.,1.060842\\Version=ES64L-G16RevC.01\State=1-SG\HF=-2573.7306
 849\MP2=-2573.8235839\RMSD=2.190e-09\PG=C*V [C*(H1Br1)]\\@


 READER, WHETHER YOU BE DILETTANTE OR PROFESSOR ... SHOW YOURSELF TO BE
 MORE HUMAN THAN CRITICAL, AND THEN YOUR PLEASURE WILL INCREASE.
                                           -- DOMENICO SCARLATTI (1738)
 Job cpu time:       0 days  0 hours  0 minutes 45.4 seconds.
 Elapsed time:       0 days  0 hours  0 minutes  1.9 seconds.
 File lengths (MBytes):  RWF=      6 Int=      0 D2E=      0 Chk=      1 Scr=      1
 Normal termination of Gaussian 16 at Wed May 12 01:35:50 2021.
