 Entering Gaussian System, Link 0=g16
 Input=monomer_B.com
 Output=monomer_B.log
 Initial command:
 /cm/shared/apps/gaussian/g16/C01/g16/l1.exe "/local/scratch/tirri/Gau-192317.inp" -scrdir="/local/scratch/tirri/"
 Entering Link 1 = /cm/shared/apps/gaussian/g16/C01/g16/l1.exe PID=    192318.
  
 Copyright (c) 1988-2019, Gaussian, Inc.  All Rights Reserved.
  
 This is part of the Gaussian(R) 16 program.  It is based on
 the Gaussian(R) 09 system (copyright 2009, Gaussian, Inc.),
 the Gaussian(R) 03 system (copyright 2003, Gaussian, Inc.),
 the Gaussian(R) 98 system (copyright 1998, Gaussian, Inc.),
 the Gaussian(R) 94 system (copyright 1995, Gaussian, Inc.),
 the Gaussian 92(TM) system (copyright 1992, Gaussian, Inc.),
 the Gaussian 90(TM) system (copyright 1990, Gaussian, Inc.),
 the Gaussian 88(TM) system (copyright 1988, Gaussian, Inc.),
 the Gaussian 86(TM) system (copyright 1986, Carnegie Mellon
 University), and the Gaussian 82(TM) system (copyright 1983,
 Carnegie Mellon University). Gaussian is a federally registered
 trademark of Gaussian, Inc.
  
 This software contains proprietary and confidential information,
 including trade secrets, belonging to Gaussian, Inc.
  
 This software is provided under written license and may be
 used, copied, transmitted, or stored only in accord with that
 written license.
  
 The following legend is applicable only to US Government
 contracts under FAR:
  
                    RESTRICTED RIGHTS LEGEND
  
 Use, reproduction and disclosure by the US Government is
 subject to restrictions as set forth in subparagraphs (a)
 and (c) of the Commercial Computer Software - Restricted
 Rights clause in FAR 52.227-19.
  
 Gaussian, Inc.
 340 Quinnipiac St., Bldg. 40, Wallingford CT 06492
  
  
 ---------------------------------------------------------------
 Warning -- This program may not be used in any manner that
 competes with the business of Gaussian, Inc. or will provide
 assistance to any competitor of Gaussian, Inc.  The licensee
 of this program is prohibited from giving any competitor of
 Gaussian, Inc. access to this program.  By using this program,
 the user acknowledges that Gaussian, Inc. is engaged in the
 business of creating and licensing software in the field of
 computational chemistry and represents and warrants to the
 licensee that it is not a competitor of Gaussian, Inc. and that
 it will not use this program in any manner prohibited above.
 ---------------------------------------------------------------
  

 Cite this work as:
 Gaussian 16, Revision C.01,
 M. J. Frisch, G. W. Trucks, H. B. Schlegel, G. E. Scuseria, 
 M. A. Robb, J. R. Cheeseman, G. Scalmani, V. Barone, 
 G. A. Petersson, H. Nakatsuji, X. Li, M. Caricato, A. V. Marenich, 
 J. Bloino, B. G. Janesko, R. Gomperts, B. Mennucci, H. P. Hratchian, 
 J. V. Ortiz, A. F. Izmaylov, J. L. Sonnenberg, D. Williams-Young, 
 F. Ding, F. Lipparini, F. Egidi, J. Goings, B. Peng, A. Petrone, 
 T. Henderson, D. Ranasinghe, V. G. Zakrzewski, J. Gao, N. Rega, 
 G. Zheng, W. Liang, M. Hada, M. Ehara, K. Toyota, R. Fukuda, 
 J. Hasegawa, M. Ishida, T. Nakajima, Y. Honda, O. Kitao, H. Nakai, 
 T. Vreven, K. Throssell, J. A. Montgomery, Jr., J. E. Peralta, 
 F. Ogliaro, M. J. Bearpark, J. J. Heyd, E. N. Brothers, K. N. Kudin, 
 V. N. Staroverov, T. A. Keith, R. Kobayashi, J. Normand, 
 K. Raghavachari, A. P. Rendell, J. C. Burant, S. S. Iyengar, 
 J. Tomasi, M. Cossi, J. M. Millam, M. Klene, C. Adamo, R. Cammi, 
 J. W. Ochterski, R. L. Martin, K. Morokuma, O. Farkas, 
 J. B. Foresman, and D. J. Fox, Gaussian, Inc., Wallingford CT, 2019.
 
 ******************************************
 Gaussian 16:  ES64L-G16RevC.01  3-Jul-2019
                12-May-2021 
 ******************************************
 %CHK=monomer_B.chk
 %MEM=100GB
 %Nprocs=32
 Will use up to   32 processors via shared memory.
 ----------------------------------------------------------------------
 #P PBEQIDH/gen Extralinks=L608 INT=(ultrafine) SCF=tight integral=NoXC
 Test
 ----------------------------------------------------------------------
 1/38=1,172=1/1;
 2/12=2,17=6,18=5,40=1/2;
 3/5=7,11=9,25=1,30=1,47=8,74=-79,75=-5/1,2,3;
 4//1;
 5/5=2,32=2,38=5/2;
 8/10=1/1;
 9/16=-3/6;
 6/7=2,8=2,9=2,10=2/1,8;
 99/5=1,9=1/99;
 Leave Link    1 at Wed May 12 01:35:50 2021, MaxMem= 13421772800 cpu:               0.9 elap:               0.0
 (Enter /cm/shared/apps/gaussian/g16/C01/g16/l101.exe)
 ----------------------------------------------
 0_monomer_B DH-SVPD --> H C N Def2-SVPD --> Br
 ----------------------------------------------
 Symbolic Z-matrix:
 Charge =  0 Multiplicity = 1
 N                     0.        0.       -3.25206 
 C                     0.        0.       -4.40743 
 H                     0.        0.       -5.47498 
 
 ITRead=  0  0  0
 MicOpt= -1 -1 -1
 NAtoms=      3 NQM=        3 NQMF=       0 NMMI=      0 NMMIF=      0
                NMic=       0 NMicF=      0.
                    Isotopes and Nuclear Properties:
 (Nuclear quadrupole moments (NQMom) in fm**2, nuclear magnetic moments (NMagM)
  in nuclear magnetons)

  Atom         1           2           3
 IAtWgt=          14          12           1
 AtmWgt=  14.0030740  12.0000000   1.0078250
 NucSpn=           2           0           1
 AtZEff=  -0.0000000  -0.0000000  -0.0000000
 NQMom=    2.0440000   0.0000000   0.0000000
 NMagM=    0.4037610   0.0000000   2.7928460
 AtZNuc=   7.0000000   6.0000000   1.0000000
 Leave Link  101 at Wed May 12 01:35:50 2021, MaxMem= 13421772800 cpu:               3.0 elap:               0.1
 (Enter /cm/shared/apps/gaussian/g16/C01/g16/l202.exe)
                          Input orientation:                          
 ---------------------------------------------------------------------
 Center     Atomic      Atomic             Coordinates (Angstroms)
 Number     Number       Type             X           Y           Z
 ---------------------------------------------------------------------
      1          7           0        0.000000    0.000000   -3.252056
      2          6           0        0.000000    0.000000   -4.407429
      3          1           0        0.000000    0.000000   -5.474977
 ---------------------------------------------------------------------
                    Distance matrix (angstroms):
                    1          2          3
     1  N    0.000000
     2  C    1.155373   0.000000
     3  H    2.222921   1.067548   0.000000
 Stoichiometry    CHN
 Framework group  C*V[C*(HCN)]
 Deg. of freedom     2
 Full point group                 C*V     NOp   4
 Largest Abelian subgroup         C2V     NOp   4
 Largest concise Abelian subgroup C1      NOp   1
                         Standard orientation:                         
 ---------------------------------------------------------------------
 Center     Atomic      Atomic             Coordinates (Angstroms)
 Number     Number       Type             X           Y           Z
 ---------------------------------------------------------------------
      1          7           0        0.000000    0.000000    0.653940
      2          6           0        0.000000    0.000000   -0.501433
      3          1           0        0.000000    0.000000   -1.568981
 ---------------------------------------------------------------------
 Rotational constants (GHZ):           0.0000000          44.3451997          44.3451997
 Leave Link  202 at Wed May 12 01:35:50 2021, MaxMem= 13421772800 cpu:               0.6 elap:               0.0
 (Enter /cm/shared/apps/gaussian/g16/C01/g16/l301.exe)
 General basis read from cards:  (5D, 7F)
 Centers:       3
 s 3 1.00
     Exponent=  1.3010701000D+01 Coefficients=  1.9682158000D-02
     Exponent=  1.9622572000D+00 Coefficients=  1.3796524000D-01
     Exponent=  4.4453796000D-01 Coefficients=  4.7831935000D-01
 S 1 1.00
     Exponent=  4.6178678500D-01 Coefficients=  1.0000000000D+00
 P 1 1.00
     Exponent=  8.0000000000D-01 Coefficients=  1.0000000000D+00
 P 1 1.00
     Exponent=  7.9134024200D-02 Coefficients=  1.0000000000D+00
 ****
 Centers:       1
 S 5 1.00
     Exponent=  1.7128415853D+03 Coefficients= -5.3934125305D-03
     Exponent=  2.5764812677D+02 Coefficients= -4.0221581118D-02
     Exponent=  5.8458245853D+01 Coefficients= -1.7931144990D-01
     Exponent=  1.6198367905D+01 Coefficients= -4.6376317823D-01
     Exponent=  5.0052600809D+00 Coefficients= -4.4171422662D-01
 S 1 1.00
     Exponent=  5.8731856571D-01 Coefficients=  1.0000000000D+00
 S 1 1.00
     Exponent=  1.8764592253D-01 Coefficients=  1.0000000000D+00
 S 1 1.00
     Exponent=  9.6171241529D-02 Coefficients=  1.0000000000D+00
 P 3 1.00
     Exponent=  1.3571470233D+01 Coefficients= -4.0072398852D-02
     Exponent=  2.9257372874D+00 Coefficients= -2.1807045028D-01
     Exponent=  7.9927750754D-01 Coefficients= -5.1294466049D-01
 P 1 1.00
     Exponent=  1.9188614740D-01 Coefficients=  1.0000000000D+00
 D 1 1.00
     Exponent=  1.0000000000D+00 Coefficients=  1.0000000000D+00
 D 1 1.00
     Exponent=  3.0954432590D-01 Coefficients=  1.0000000000D+00
 ****
 Centers:       2
 S 5 1.00
     Exponent=  1.2384016938D+03 Coefficients=  5.4568832082D-03
     Exponent=  1.8629004992D+02 Coefficients=  4.0638409211D-02
     Exponent=  4.2251176346D+01 Coefficients=  1.8025593888D-01
     Exponent=  1.1676557932D+01 Coefficients=  4.6315121755D-01
     Exponent=  3.5930506482D+00 Coefficients=  4.4087173314D-01
 S 1 1.00
     Exponent=  4.0245147363D-01 Coefficients=  1.0000000000D+00
 S 1 1.00
     Exponent=  1.3090182668D-01 Coefficients=  1.0000000000D+00
 S 1 1.00
     Exponent=  6.7053540256D-02 Coefficients=  1.0000000000D+00
 P 3 1.00
     Exponent=  9.4680970621D+00 Coefficients=  3.8387871728D-02
     Exponent=  2.0103545142D+00 Coefficients=  2.1117025112D-01
     Exponent=  5.4771004707D-01 Coefficients=  5.1328172114D-01
 P 1 1.00
     Exponent=  1.5080365500D-01 Coefficients=  1.0000000000D+00
 D 1 1.00
     Exponent=  8.0000000000D-01 Coefficients=  1.0000000000D+00
 D 1 1.00
     Exponent=  3.2292947900D-01 Coefficients=  1.0000000000D+00
 ****
 Ernie: Thresh=  0.10000D-02 Tol=  0.10000D-05 Strict=F.
 There are    28 symmetry adapted cartesian basis functions of A1  symmetry.
 There are     4 symmetry adapted cartesian basis functions of A2  symmetry.
 There are    10 symmetry adapted cartesian basis functions of B1  symmetry.
 There are    10 symmetry adapted cartesian basis functions of B2  symmetry.
 There are    24 symmetry adapted basis functions of A1  symmetry.
 There are     4 symmetry adapted basis functions of A2  symmetry.
 There are    10 symmetry adapted basis functions of B1  symmetry.
 There are    10 symmetry adapted basis functions of B2  symmetry.
    48 basis functions,    74 primitive gaussians,    52 cartesian basis functions
     7 alpha electrons        7 beta electrons
       nuclear repulsion energy        23.8771439601 Hartrees.
 IExCor= 1009 DFT=T Ex+Corr=PBEQIDH ExCW=0 ScaHFX=  0.690000
 ScaDFX=  0.310000  0.310000  0.666600  0.666600 ScalE2=  0.333400  0.333400
 IRadAn=      5 IRanWt=     -1 IRanGd=            0 ICorTp=0 IEmpDi=  4
 NAtoms=    3 NActive=    3 NUniq=    3 SFac= 1.00D+00 NAtFMM=   60 NAOKFM=F Big=F
 Integral buffers will be    131072 words long.
 Regular integral format.
 Two-electron integral symmetry is turned on.
 Leave Link  301 at Wed May 12 01:35:50 2021, MaxMem= 13421772800 cpu:               2.2 elap:               0.1
 (Enter /cm/shared/apps/gaussian/g16/C01/g16/l302.exe)
 NPDir=0 NMtPBC=     1 NCelOv=     1 NCel=       1 NClECP=     1 NCelD=      1
         NCelK=      1 NCelE2=     1 NClLst=     1 CellRange=     0.0.
 One-electron integrals computed using PRISM.
 One-electron integral symmetry used in STVInt
 NBasis=    48 RedAO= T EigKep=  1.06D-03  NBF=    24     4    10    10
 NBsUse=    48 1.00D-06 EigRej= -1.00D+00 NBFU=    24     4    10    10
 Precomputing XC quadrature grid using
 IXCGrd= 4 IRadAn=           5 IRanWt=          -1 IRanGd=           0 AccXCQ= 0.00D+00.
 Generated NRdTot=       0 NPtTot=           0 NUsed=           0 NTot=          32
 NSgBfM=    52    52    52    52    52 MxSgAt=     3 MxSgA2=     3.
 Leave Link  302 at Wed May 12 01:35:50 2021, MaxMem= 13421772800 cpu:               5.2 elap:               0.2
 (Enter /cm/shared/apps/gaussian/g16/C01/g16/l303.exe)
 DipDrv:  MaxL=1.
 Leave Link  303 at Wed May 12 01:35:50 2021, MaxMem= 13421772800 cpu:               0.6 elap:               0.0
 (Enter /cm/shared/apps/gaussian/g16/C01/g16/l401.exe)
 ExpMin= 6.71D-02 ExpMax= 1.71D+03 ExpMxC= 2.58D+02 IAcc=3 IRadAn=         5 AccDes= 0.00D+00
 Harris functional with IExCor= 1009 and IRadAn=       5 diagonalized for initial guess.
 HarFok:  IExCor= 1009 AccDes= 0.00D+00 IRadAn=         5 IDoV= 1 UseB2=F ITyADJ=14
 ICtDFT=  3500011 ScaDFX=  1.000000  1.000000  1.000000  1.000000
 FoFCou: FMM=F IPFlag=           8 FMFlag=      100000 FMFlg1=           0
         NFxFlg=           0 DoJE=T BraDBF=F KetDBF=T FulRan=T
         wScrn=  0.000000 ICntrl=       500 IOpCl=  0 I1Cent=   200000004 NGrid=           0
         NMat0=    1 NMatS0=      1 NMatT0=    0 NMatD0=    1 NMtDS0=    0 NMtDT0=    0
 Petite list used in FoFCou.
 Harris En= -93.2649874375667    
 JPrj=0 DoOrth=F DoCkMO=F.
 Initial guess orbital symmetries:
       Occupied  (SG) (SG) (SG) (SG) (SG) (PI) (PI)
       Virtual   (PI) (PI) (SG) (SG) (PI) (PI) (SG) (SG) (SG) (PI)
                 (PI) (DLTA) (DLTA) (SG) (PI) (PI) (PI) (PI) (SG)
                 (SG) (DLTA) (DLTA) (SG) (PI) (PI) (SG) (SG) (PI)
                 (PI) (PI) (PI) (DLTA) (DLTA) (SG) (DLTA) (DLTA)
                 (SG) (PI) (PI) (SG) (SG)
 The electronic state of the initial guess is 1-SG.
 Leave Link  401 at Wed May 12 01:35:50 2021, MaxMem= 13421772800 cpu:               4.4 elap:               0.2
 (Enter /cm/shared/apps/gaussian/g16/C01/g16/l502.exe)
 Keep R1 ints in memory in symmetry-blocked form, NReq=28751572.
 FoFCou: FMM=F IPFlag=           8 FMFlag=           0 FMFlg1=           0
         NFxFlg=           0 DoJE=F BraDBF=F KetDBF=F FulRan=T
         wScrn=  0.000000 ICntrl=       600 IOpCl=  0 I1Cent=           0 NGrid=           0
         NMat0=    1 NMatS0=   1176 NMatT0=    0 NMatD0=    1 NMtDS0=    0 NMtDT0=    0
 Petite list used in FoFCou.
 Closed shell SCF:
 Using DIIS extrapolation, IDIIS=  1040.
 NGot= 13421772800 LenX= 13421574232 LenY= 13421571087
 Requested convergence on RMS density matrix=1.00D-08 within 128 cycles.
 Requested convergence on MAX density matrix=1.00D-06.
 Requested convergence on             energy=1.00D-06.
 No special actions if energy rises.
 Integral accuracy reduced to 1.0D-05 until final iterations.

 Cycle   1  Pass 0  IDiag  1:
 E= -93.0553070968868    
 DIIS: error= 2.78D-02 at cycle   1 NSaved=   1.
 NSaved= 1 IEnMin= 1 EnMin= -93.0553070968868     IErMin= 1 ErrMin= 2.78D-02
 ErrMax= 2.78D-02  0.00D+00 EMaxC= 1.00D-01 BMatC= 4.28D-02 BMatP= 4.28D-02
 IDIUse=3 WtCom= 7.22D-01 WtEn= 2.78D-01
 Coeff-Com:  0.100D+01
 Coeff-En:   0.100D+01
 Coeff:      0.100D+01
 Gap=     0.476 Goal=   None    Shift=    0.000
 GapD=    0.476 DampG=2.000 DampE=0.500 DampFc=1.0000 IDamp=-1.
 RMSDP=7.25D-03 MaxDP=8.34D-02              OVMax= 1.13D-01

 Cycle   2  Pass 0  IDiag  1:
 E= -93.0690589607647     Delta-E=       -0.013751863878 Rises=F Damp=F
 DIIS: error= 2.07D-02 at cycle   2 NSaved=   2.
 NSaved= 2 IEnMin= 2 EnMin= -93.0690589607647     IErMin= 2 ErrMin= 2.07D-02
 ErrMax= 2.07D-02  0.00D+00 EMaxC= 1.00D-01 BMatC= 2.81D-02 BMatP= 4.28D-02
 IDIUse=3 WtCom= 7.93D-01 WtEn= 2.07D-01
 Coeff-Com:  0.438D+00 0.562D+00
 Coeff-En:   0.358D+00 0.642D+00
 Coeff:      0.422D+00 0.578D+00
 Gap=     0.534 Goal=   None    Shift=    0.000
 RMSDP=4.35D-03 MaxDP=5.77D-02 DE=-1.38D-02 OVMax= 7.00D-02

 Cycle   3  Pass 0  IDiag  1:
 E= -93.0913192133414     Delta-E=       -0.022260252577 Rises=F Damp=F
 DIIS: error= 8.57D-03 at cycle   3 NSaved=   3.
 NSaved= 3 IEnMin= 3 EnMin= -93.0913192133414     IErMin= 3 ErrMin= 8.57D-03
 ErrMax= 8.57D-03  0.00D+00 EMaxC= 1.00D-01 BMatC= 3.36D-03 BMatP= 2.81D-02
 IDIUse=3 WtCom= 9.14D-01 WtEn= 8.57D-02
 Coeff-Com:  0.764D-01 0.269D+00 0.654D+00
 Coeff-En:   0.000D+00 0.265D-01 0.973D+00
 Coeff:      0.698D-01 0.249D+00 0.682D+00
 Gap=     0.538 Goal=   None    Shift=    0.000
 RMSDP=1.16D-03 MaxDP=1.73D-02 DE=-2.23D-02 OVMax= 2.34D-02

 Cycle   4  Pass 0  IDiag  1:
 E= -93.0941550817601     Delta-E=       -0.002835868419 Rises=F Damp=F
 DIIS: error= 1.71D-03 at cycle   4 NSaved=   4.
 NSaved= 4 IEnMin= 4 EnMin= -93.0941550817601     IErMin= 4 ErrMin= 1.71D-03
 ErrMax= 1.71D-03  0.00D+00 EMaxC= 1.00D-01 BMatC= 1.56D-04 BMatP= 3.36D-03
 IDIUse=3 WtCom= 9.83D-01 WtEn= 1.71D-02
 Coeff-Com: -0.165D-01-0.117D-02 0.191D+00 0.827D+00
 Coeff-En:   0.000D+00 0.000D+00 0.000D+00 0.100D+01
 Coeff:     -0.162D-01-0.115D-02 0.188D+00 0.829D+00
 Gap=     0.536 Goal=   None    Shift=    0.000
 RMSDP=3.51D-04 MaxDP=4.62D-03 DE=-2.84D-03 OVMax= 3.66D-03

 Cycle   5  Pass 0  IDiag  1:
 E= -93.0942968105658     Delta-E=       -0.000141728806 Rises=F Damp=F
 DIIS: error= 9.27D-05 at cycle   5 NSaved=   5.
 NSaved= 5 IEnMin= 5 EnMin= -93.0942968105658     IErMin= 5 ErrMin= 9.27D-05
 ErrMax= 9.27D-05  0.00D+00 EMaxC= 1.00D-01 BMatC= 4.56D-07 BMatP= 1.56D-04
 IDIUse=1 WtCom= 1.00D+00 WtEn= 0.00D+00
 Coeff-Com:  0.197D-02-0.464D-02-0.478D-01-0.157D+00 0.121D+01
 Coeff:      0.197D-02-0.464D-02-0.478D-01-0.157D+00 0.121D+01
 Gap=     0.536 Goal=   None    Shift=    0.000
 RMSDP=6.33D-05 MaxDP=8.52D-04 DE=-1.42D-04 OVMax= 6.50D-04

 Cycle   6  Pass 0  IDiag  1:
 E= -93.0942977872983     Delta-E=       -0.000000976733 Rises=F Damp=F
 DIIS: error= 1.29D-05 at cycle   6 NSaved=   6.
 NSaved= 6 IEnMin= 6 EnMin= -93.0942977872983     IErMin= 6 ErrMin= 1.29D-05
 ErrMax= 1.29D-05  0.00D+00 EMaxC= 1.00D-01 BMatC= 7.66D-09 BMatP= 4.56D-07
 IDIUse=1 WtCom= 1.00D+00 WtEn= 0.00D+00
 Coeff-Com:  0.176D-03-0.365D-03-0.231D-02-0.964D-02-0.142D-01 0.103D+01
 Coeff:      0.176D-03-0.365D-03-0.231D-02-0.964D-02-0.142D-01 0.103D+01
 Gap=     0.536 Goal=   None    Shift=    0.000
 RMSDP=6.89D-06 MaxDP=9.01D-05 DE=-9.77D-07 OVMax= 7.71D-05

 Initial convergence to 1.0D-05 achieved.  Increase integral accuracy.
 Cycle   7  Pass 1  IDiag  1:
 E= -93.0942978034904     Delta-E=       -0.000000016192 Rises=F Damp=F
 DIIS: error= 3.30D-06 at cycle   1 NSaved=   1.
 NSaved= 1 IEnMin= 1 EnMin= -93.0942978034904     IErMin= 1 ErrMin= 3.30D-06
 ErrMax= 3.30D-06  0.00D+00 EMaxC= 1.00D-01 BMatC= 7.01D-10 BMatP= 7.01D-10
 IDIUse=1 WtCom= 1.00D+00 WtEn= 0.00D+00
 Coeff-Com:  0.100D+01
 Coeff:      0.100D+01
 Gap=     0.536 Goal=   None    Shift=    0.000
 RMSDP=6.89D-06 MaxDP=9.01D-05 DE=-1.62D-08 OVMax= 1.40D-05

 Cycle   8  Pass 1  IDiag  1:
 E= -93.0942978037052     Delta-E=       -0.000000000215 Rises=F Damp=F
 DIIS: error= 3.28D-06 at cycle   2 NSaved=   2.
 NSaved= 2 IEnMin= 2 EnMin= -93.0942978037052     IErMin= 2 ErrMin= 3.28D-06
 ErrMax= 3.28D-06  0.00D+00 EMaxC= 1.00D-01 BMatC= 5.83D-10 BMatP= 7.01D-10
 IDIUse=1 WtCom= 1.00D+00 WtEn= 0.00D+00
 Coeff-Com:  0.474D+00 0.526D+00
 Coeff:      0.474D+00 0.526D+00
 Gap=     0.536 Goal=   None    Shift=    0.000
 RMSDP=4.63D-07 MaxDP=6.39D-06 DE=-2.15D-10 OVMax= 1.10D-05

 Cycle   9  Pass 1  IDiag  1:
 E= -93.0942978042467     Delta-E=       -0.000000000541 Rises=F Damp=F
 DIIS: error= 9.80D-07 at cycle   3 NSaved=   3.
 NSaved= 3 IEnMin= 3 EnMin= -93.0942978042467     IErMin= 3 ErrMin= 9.80D-07
 ErrMax= 9.80D-07  0.00D+00 EMaxC= 1.00D-01 BMatC= 5.58D-11 BMatP= 5.83D-10
 IDIUse=1 WtCom= 1.00D+00 WtEn= 0.00D+00
 Coeff-Com: -0.234D+00 0.108D+00 0.113D+01
 Coeff:     -0.234D+00 0.108D+00 0.113D+01
 Gap=     0.536 Goal=   None    Shift=    0.000
 RMSDP=3.38D-07 MaxDP=4.01D-06 DE=-5.41D-10 OVMax= 3.45D-06

 Cycle  10  Pass 1  IDiag  1:
 E= -93.0942978042993     Delta-E=       -0.000000000053 Rises=F Damp=F
 DIIS: error= 7.78D-08 at cycle   4 NSaved=   4.
 NSaved= 4 IEnMin= 4 EnMin= -93.0942978042993     IErMin= 4 ErrMin= 7.78D-08
 ErrMax= 7.78D-08  0.00D+00 EMaxC= 1.00D-01 BMatC= 2.34D-13 BMatP= 5.58D-11
 IDIUse=1 WtCom= 1.00D+00 WtEn= 0.00D+00
 Coeff-Com: -0.216D-01 0.651D-02 0.407D-01 0.974D+00
 Coeff:     -0.216D-01 0.651D-02 0.407D-01 0.974D+00
 Gap=     0.536 Goal=   None    Shift=    0.000
 RMSDP=2.47D-08 MaxDP=3.29D-07 DE=-5.27D-11 OVMax= 2.24D-07

 Cycle  11  Pass 1  IDiag  1:
 E= -93.0942978043001     Delta-E=       -0.000000000001 Rises=F Damp=F
 DIIS: error= 1.42D-08 at cycle   5 NSaved=   5.
 NSaved= 5 IEnMin= 5 EnMin= -93.0942978043001     IErMin= 5 ErrMin= 1.42D-08
 ErrMax= 1.42D-08  0.00D+00 EMaxC= 1.00D-01 BMatC= 8.20D-15 BMatP= 2.34D-13
 IDIUse=1 WtCom= 1.00D+00 WtEn= 0.00D+00
 Coeff-Com:  0.736D-02-0.280D-02-0.451D-01 0.133D+00 0.908D+00
 Coeff:      0.736D-02-0.280D-02-0.451D-01 0.133D+00 0.908D+00
 Gap=     0.536 Goal=   None    Shift=    0.000
 RMSDP=3.74D-09 MaxDP=6.88D-08 DE=-7.39D-13 OVMax= 5.07D-08

 SCF Done:  E(RPBEQIDH) =  -93.0942978043     A.U. after   11 cycles
            NFock= 11  Conv=0.37D-08     -V/T= 2.0074
 KE= 9.240629684158D+01 PE=-2.648500478545D+02 EE= 5.547230924855D+01
 Leave Link  502 at Wed May 12 01:35:51 2021, MaxMem= 13421772800 cpu:               7.3 elap:               0.3
 (Enter /cm/shared/apps/gaussian/g16/C01/g16/l801.exe)
 DoSCS=T DFT=T ScalE2(SS,OS)=  0.333400  0.333400
 ExpMin= 6.71D-02 ExpMax= 1.71D+03 ExpMxC= 2.58D+02 IAcc=3 IRadAn=         5 AccDes= 0.00D+00
 HarFok:  IExCor=  205 AccDes= 0.00D+00 IRadAn=         5 IDoV=-2 UseB2=F ITyADJ=14
 ICtDFT= 12500011 ScaDFX=  1.000000  1.000000  1.000000  1.000000
 Largest valence mixing into a core orbital is  9.17D-05
 Largest core mixing into a valence orbital is  3.10D-05
 Range of M.O.s used for correlation:     3    48
 NBasis=    48 NAE=     7 NBE=     7 NFC=     2 NFV=     0
 NROrb=     46 NOA=     5 NOB=     5 NVA=    41 NVB=    41
 Leave Link  801 at Wed May 12 01:35:51 2021, MaxMem= 13421772800 cpu:               4.1 elap:               0.2
 (Enter /cm/shared/apps/gaussian/g16/C01/g16/l906.exe)
 DoSCS=T DFT=T ScalE2(SS,OS)=  0.333400  0.333400
 FulOut=F Deriv=F AODrv=F NAtomX=     3
   MMem=       29118  MDisk=           5 MDiskD=           5
  W3Min=       10660 MinDsk=       81415 NBas6D=          52
 NBas2D=        1456    NTT=        1378    LW2=     2000000
    MDV= 13421749485 MDiskM=     3584334 NBas2p=        1456
 Fully in-core method, ICMem=     8260180.
 IMap=   1   2   3   4   5
 JobTyp=1 Pass  1 fully in-core, NPsUse= 32.
 Compute canonical integrals.
 FoFCou: FMM=F IPFlag=           8 FMFlag=           0 FMFlg1=           0
         NFxFlg=           0 DoJE=F BraDBF=F KetDBF=F FulRan=T
         wScrn=  0.000000 ICntrl=       600 IOpCl=  1 I1Cent=           0 NGrid=           0
         NMat0=    1 NMatS0=   1456 NMatT0=    0 NMatD0=    1 NMtDS0=    0 NMtDT0=    0
 Symmetry not used in FoFCou.
 Spin components of T(2) and E(2):
     alpha-alpha T2 =       0.2050519664D-01 E2=     -0.1482845625D-01
     alpha-beta  T2 =       0.1173482648D+00 E2=     -0.8661006080D-01
     beta-beta   T2 =       0.2050519664D-01 E2=     -0.1482845625D-01
 The integrals were generated   1 times.
 E2(PBEQIDH) =    -0.1162669733D+00 E(PBEQIDH) =    -0.93210564777597D+02
 Leave Link  906 at Wed May 12 01:35:51 2021, MaxMem= 13421772800 cpu:               4.2 elap:               0.2
 (Enter /cm/shared/apps/gaussian/g16/C01/g16/l601.exe)
 Copying SCF densities to generalized density rwf, IOpCl= 0 IROHF=0.

 **********************************************************************

            Population analysis using the SCF Density.

 **********************************************************************

 Orbital symmetries:
       Occupied  (SG) (SG) (SG) (SG) (SG) (PI) (PI)
       Virtual   (SG) (PI) (PI) (SG) (PI) (PI) (SG) (SG) (SG) (PI)
                 (PI) (SG) (DLTA) (DLTA) (PI) (PI) (SG) (PI) (PI)
                 (DLTA) (DLTA) (SG) (SG) (PI) (PI) (SG) (SG) (PI)
                 (PI) (PI) (PI) (DLTA) (DLTA) (SG) (DLTA) (DLTA)
                 (SG) (PI) (PI) (SG) (SG)
 The electronic state is 1-SG.
 Alpha  occ. eigenvalues --  -15.11769 -10.89062  -1.12151  -0.74421  -0.51695
 Alpha  occ. eigenvalues --   -0.46335  -0.46335
 Alpha virt. eigenvalues --    0.07269   0.07349   0.07349   0.11962   0.19915
 Alpha virt. eigenvalues --    0.19915   0.26098   0.34258   0.63760   0.64871
 Alpha virt. eigenvalues --    0.64871   0.65640   0.67794   0.67794   0.80024
 Alpha virt. eigenvalues --    0.80024   0.91600   0.97008   0.97008   1.01201
 Alpha virt. eigenvalues --    1.01201   1.05569   1.21311   1.37363   1.37363
 Alpha virt. eigenvalues --    1.77576   2.05649   2.23678   2.23678   2.46644
 Alpha virt. eigenvalues --    2.46644   2.53867   2.53867   2.57065   3.02096
 Alpha virt. eigenvalues --    3.02096   3.18865   3.49715   3.49715   3.83201
 Alpha virt. eigenvalues --    4.42950
          Condensed to atoms (all electrons):
               1          2          3
     1  N    6.486341   0.646742   0.029910
     2  C    0.646742   5.132941   0.361286
     3  H    0.029910   0.361286   0.304842
 Mulliken charges:
               1
     1  N   -0.162992
     2  C   -0.140969
     3  H    0.303962
 Sum of Mulliken charges =  -0.00000
 Mulliken charges with hydrogens summed into heavy atoms:
               1
     1  N   -0.162992
     2  C    0.162992
 Electronic spatial extent (au):  <R**2>=             49.7745
 Charge=             -0.0000 electrons
 Dipole moment (field-independent basis, Debye):
    X=              0.0000    Y=              0.0000    Z=             -3.2981  Tot=              3.2981
 Quadrupole moment (field-independent basis, Debye-Ang):
   XX=            -11.9161   YY=            -11.9161   ZZ=             -9.6678
   XY=              0.0000   XZ=              0.0000   YZ=              0.0000
 Traceless Quadrupole moment (field-independent basis, Debye-Ang):
   XX=             -0.7494   YY=             -0.7494   ZZ=              1.4988
   XY=              0.0000   XZ=              0.0000   YZ=              0.0000
 Octapole moment (field-independent basis, Debye-Ang**2):
  XXX=              0.0000  YYY=              0.0000  ZZZ=             -8.3321  XYY=              0.0000
  XXY=              0.0000  XXZ=             -0.4794  XZZ=              0.0000  YZZ=              0.0000
  YYZ=             -0.4794  XYZ=              0.0000
 Hexadecapole moment (field-independent basis, Debye-Ang**3):
 XXXX=            -11.9132 YYYY=            -11.9132 ZZZZ=            -35.5690 XXXY=              0.0000
 XXXZ=              0.0000 YYYX=              0.0000 YYYZ=              0.0000 ZZZX=              0.0000
 ZZZY=              0.0000 XXYY=             -3.9711 XXZZ=             -9.1667 YYZZ=             -9.1667
 XXYZ=              0.0000 YYXZ=              0.0000 ZZXY=              0.0000
 N-N= 2.387714396007D+01 E-N=-2.648500485015D+02  KE= 9.240629684158D+01
 Symmetry A1   KE= 8.687861438514D+01
 Symmetry A2   KE= 6.500878877622D-52
 Symmetry B1   KE= 2.763841228221D+00
 Symmetry B2   KE= 2.763841228221D+00
 Leave Link  601 at Wed May 12 01:35:51 2021, MaxMem= 13421772800 cpu:               2.9 elap:               0.1
 (Enter /cm/shared/apps/gaussian/g16/C01/g16/l608.exe)
 IExCor= 1009 DFT=T Ex+Corr=PBEQIDH ExCW=0 ScaHFX=  0.690000
 ScaDFX=  0.310000  0.310000  0.666600  0.666600 ScalE2=  0.333400  0.333400
 IRadAn=      4 IRanWt=     -1 IRanGd=            0 ICorTp=0 IEmpDi=  4
 A total of   1 models will be applied.

 Results using SCF Density:
 FoFJK:  IHMeth= 0 ICntrl=     500 DoSepK=F KAlg= 0 I1Cent=           0 FoldK=F
 IRaf=         0 NMat=       1 IRICut=       1 DoRegI=T DoRafI=F ISym2E= 0 IDoP0=0 IntGTp=1.
 FoFCou: FMM=F IPFlag=           8 FMFlag=           0 FMFlg1=           0
         NFxFlg=           0 DoJE=F BraDBF=F KetDBF=F FulRan=T
         wScrn=  0.000000 ICntrl=       500 IOpCl=  1 I1Cent=           0 NGrid=           0
         NMat0=    1 NMatS0=      1 NMatT0=    0 NMatD0=    1 NMtDS0=    0 NMtDT0=    0
 Symmetry not used in FoFCou.
 ET=   92.406297 EV= -264.850049 EJ=   67.772682 EK=  -12.007476 ENuc=   23.877144

 A=0 I=   1 IExCor= 1009 IRadAn=       4 ScaHFX=  0.690000
            ScaDFX=  0.310000  0.310000  0.666600  0.666600
 HFx=  0.000000  0.000000  1.000000  0.000000  0.000000
 DFx=  0.000000  0.000000  1.000000  0.000000  0.000000
 DFc=  0.000000  0.000000  1.000000  0.000000  0.000000
            ENTVJ=  -80.793926 Ex=  -12.005960 Ec=   -0.294412 ETotM2e= -152.5818210724  ETot=  -93.0942978017
 Leave Link  608 at Wed May 12 01:35:51 2021, MaxMem= 13421772800 cpu:               4.4 elap:               0.2
 (Enter /cm/shared/apps/gaussian/g16/C01/g16/l9999.exe)

 Test job not archived.
 1\1\GINC-NODE003\SP\RPBEQIDH-FC\Gen\C1H1N1\TIRRI\12-May-2021\0\\#P PBE
 QIDH/gen Extralinks=L608 INT=(ultrafine) SCF=tight integral=NoXCTest\\
 0_monomer_B DH-SVPD --> H C N Def2-SVPD --> Br\\0,1\N,0,0.,0.,-3.25205
 6\C,0,0.,0.,-4.407429\H,0,0.,0.,-5.474977\\Version=ES64L-G16RevC.01\St
 ate=1-SG\HF=-93.0942978\MP2=-93.2105648\RMSD=3.740e-09\PG=C*V [C*(H1C1
 N1)]\\@


 THE UNDERLYING PHYSICAL LAWS NECESSARY FOR THE 
 MATHEMATICAL THEORY OF A LARGE PART OF PHYSICS AND THE
 WHOLE OF CHEMISTRY ARE THUS COMPLETELY KNOWN, AND THE
 DIFFICULTY IS ONLY THAT THE EXACT APPLICATION OF THESE
 LAWS LEADS TO EQUATIONS MUCH TOO COMPLICATED 
 TO BE SOLUBLE.

                                        -- P. A. M. DIRAC, 1929
 Job cpu time:       0 days  0 hours  0 minutes 41.5 seconds.
 Elapsed time:       0 days  0 hours  0 minutes  1.7 seconds.
 File lengths (MBytes):  RWF=      6 Int=      0 D2E=      0 Chk=      1 Scr=      1
 Normal termination of Gaussian 16 at Wed May 12 01:35:52 2021.
