 Entering Gaussian System, Link 0=g16
 Input=dimer_0.com
 Output=dimer_0.log
 Initial command:
 /cm/shared/apps/gaussian/g16/C01/g16/l1.exe "/local/scratch/tirri/Gau-122620.inp" -scrdir="/local/scratch/tirri/"
 Entering Link 1 = /cm/shared/apps/gaussian/g16/C01/g16/l1.exe PID=    122621.
  
 Copyright (c) 1988-2019, Gaussian, Inc.  All Rights Reserved.
  
 This is part of the Gaussian(R) 16 program.  It is based on
 the Gaussian(R) 09 system (copyright 2009, Gaussian, Inc.),
 the Gaussian(R) 03 system (copyright 2003, Gaussian, Inc.),
 the Gaussian(R) 98 system (copyright 1998, Gaussian, Inc.),
 the Gaussian(R) 94 system (copyright 1995, Gaussian, Inc.),
 the Gaussian 92(TM) system (copyright 1992, Gaussian, Inc.),
 the Gaussian 90(TM) system (copyright 1990, Gaussian, Inc.),
 the Gaussian 88(TM) system (copyright 1988, Gaussian, Inc.),
 the Gaussian 86(TM) system (copyright 1986, Carnegie Mellon
 University), and the Gaussian 82(TM) system (copyright 1983,
 Carnegie Mellon University). Gaussian is a federally registered
 trademark of Gaussian, Inc.
  
 This software contains proprietary and confidential information,
 including trade secrets, belonging to Gaussian, Inc.
  
 This software is provided under written license and may be
 used, copied, transmitted, or stored only in accord with that
 written license.
  
 The following legend is applicable only to US Government
 contracts under FAR:
  
                    RESTRICTED RIGHTS LEGEND
  
 Use, reproduction and disclosure by the US Government is
 subject to restrictions as set forth in subparagraphs (a)
 and (c) of the Commercial Computer Software - Restricted
 Rights clause in FAR 52.227-19.
  
 Gaussian, Inc.
 340 Quinnipiac St., Bldg. 40, Wallingford CT 06492
  
  
 ---------------------------------------------------------------
 Warning -- This program may not be used in any manner that
 competes with the business of Gaussian, Inc. or will provide
 assistance to any competitor of Gaussian, Inc.  The licensee
 of this program is prohibited from giving any competitor of
 Gaussian, Inc. access to this program.  By using this program,
 the user acknowledges that Gaussian, Inc. is engaged in the
 business of creating and licensing software in the field of
 computational chemistry and represents and warrants to the
 licensee that it is not a competitor of Gaussian, Inc. and that
 it will not use this program in any manner prohibited above.
 ---------------------------------------------------------------
  

 Cite this work as:
 Gaussian 16, Revision C.01,
 M. J. Frisch, G. W. Trucks, H. B. Schlegel, G. E. Scuseria, 
 M. A. Robb, J. R. Cheeseman, G. Scalmani, V. Barone, 
 G. A. Petersson, H. Nakatsuji, X. Li, M. Caricato, A. V. Marenich, 
 J. Bloino, B. G. Janesko, R. Gomperts, B. Mennucci, H. P. Hratchian, 
 J. V. Ortiz, A. F. Izmaylov, J. L. Sonnenberg, D. Williams-Young, 
 F. Ding, F. Lipparini, F. Egidi, J. Goings, B. Peng, A. Petrone, 
 T. Henderson, D. Ranasinghe, V. G. Zakrzewski, J. Gao, N. Rega, 
 G. Zheng, W. Liang, M. Hada, M. Ehara, K. Toyota, R. Fukuda, 
 J. Hasegawa, M. Ishida, T. Nakajima, Y. Honda, O. Kitao, H. Nakai, 
 T. Vreven, K. Throssell, J. A. Montgomery, Jr., J. E. Peralta, 
 F. Ogliaro, M. J. Bearpark, J. J. Heyd, E. N. Brothers, K. N. Kudin, 
 V. N. Staroverov, T. A. Keith, R. Kobayashi, J. Normand, 
 K. Raghavachari, A. P. Rendell, J. C. Burant, S. S. Iyengar, 
 J. Tomasi, M. Cossi, J. M. Millam, M. Klene, C. Adamo, R. Cammi, 
 J. W. Ochterski, R. L. Martin, K. Morokuma, O. Farkas, 
 J. B. Foresman, and D. J. Fox, Gaussian, Inc., Wallingford CT, 2019.
 
 ******************************************
 Gaussian 16:  ES64L-G16RevC.01  3-Jul-2019
                11-May-2021 
 ******************************************
 %CHK=dimer_0.chk
 %MEM=100GB
 %Nprocs=32
 Will use up to   32 processors via shared memory.
 ------------------------------------------------------
 #P PBEQIDH/gen INT=ultrafine SCF=tight Extralinks=L608
 ------------------------------------------------------
 1/38=1,172=1/1;
 2/12=2,17=6,18=5,40=1/2;
 3/5=7,11=9,25=1,30=1,74=-79,75=-5/1,2,3;
 4//1;
 5/5=2,32=2,38=5/2;
 8/10=1/1;
 9/16=-3/6;
 6/7=2,8=2,9=2,10=2/1,8;
 99/5=1,9=1/99;
 Leave Link    1 at Tue May 11 23:13:02 2021, MaxMem= 13421772800 cpu:               1.0 elap:               0.0
 (Enter /cm/shared/apps/gaussian/g16/C01/g16/l101.exe)
 -------------------------------------------------
 0_dimer DH-SVPD --> Hydrogen Def2-SVPD --> Oxygen
 -------------------------------------------------
 Symbolic Z-matrix:
 Charge =  0 Multiplicity = 1
 n                    -1.57872  -0.04661   0. 
 h                    -2.15862   0.1364   -0.80957 
 h                    -2.15862   0.1364    0.80957 
 h                    -0.84947   0.65819   0. 
 n                     1.57872   0.04661   0. 
 h                     2.15862  -0.1364   -0.80957 
 h                     0.84947  -0.65819   0. 
 h                     2.15862  -0.1364    0.80957 
 
 ITRead=  0  0  0  0  0  0  0  0
 MicOpt= -1 -1 -1 -1 -1 -1 -1 -1
 NAtoms=      8 NQM=        8 NQMF=       0 NMMI=      0 NMMIF=      0
                NMic=       0 NMicF=      0.
                    Isotopes and Nuclear Properties:
 (Nuclear quadrupole moments (NQMom) in fm**2, nuclear magnetic moments (NMagM)
  in nuclear magnetons)

  Atom         1           2           3           4           5           6           7           8
 IAtWgt=          14           1           1           1          14           1           1           1
 AtmWgt=  14.0030740   1.0078250   1.0078250   1.0078250  14.0030740   1.0078250   1.0078250   1.0078250
 NucSpn=           2           1           1           1           2           1           1           1
 AtZEff=  -0.0000000  -0.0000000  -0.0000000  -0.0000000  -0.0000000  -0.0000000  -0.0000000  -0.0000000
 NQMom=    2.0440000   0.0000000   0.0000000   0.0000000   2.0440000   0.0000000   0.0000000   0.0000000
 NMagM=    0.4037610   2.7928460   2.7928460   2.7928460   0.4037610   2.7928460   2.7928460   2.7928460
 AtZNuc=   7.0000000   1.0000000   1.0000000   1.0000000   7.0000000   1.0000000   1.0000000   1.0000000
 Leave Link  101 at Tue May 11 23:13:02 2021, MaxMem= 13421772800 cpu:               2.8 elap:               0.1
 (Enter /cm/shared/apps/gaussian/g16/C01/g16/l202.exe)
                          Input orientation:                          
 ---------------------------------------------------------------------
 Center     Atomic      Atomic             Coordinates (Angstroms)
 Number     Number       Type             X           Y           Z
 ---------------------------------------------------------------------
      1          7           0       -1.578718   -0.046611    0.000000
      2          1           0       -2.158621    0.136396   -0.809565
      3          1           0       -2.158621    0.136396    0.809565
      4          1           0       -0.849471    0.658193    0.000000
      5          7           0        1.578718    0.046611    0.000000
      6          1           0        2.158621   -0.136396   -0.809565
      7          1           0        0.849471   -0.658193    0.000000
      8          1           0        2.158621   -0.136396    0.809565
 ---------------------------------------------------------------------
                    Distance matrix (angstroms):
                    1          2          3          4          5
     1  N    0.000000
     2  H    1.012509   0.000000
     3  H    1.012509   1.619130   0.000000
     4  H    1.014174   1.625282   1.625282   0.000000
     5  N    3.158812   3.825070   3.825070   2.504024   0.000000
     6  H    3.825070   4.325852   4.618937   3.214869   1.012509
     7  H    2.504024   3.214869   3.214869   2.149250   1.014174
     8  H    3.825070   4.618937   4.325852   3.214869   1.012509
                    6          7          8
     6  H    0.000000
     7  H    1.625282   0.000000
     8  H    1.619130   1.625282   0.000000
 Stoichiometry    H6N2
 Framework group  C2H[SGH(H2N2),X(H4)]
 Deg. of freedom     6
 Full point group                 C2H     NOp   4
 Largest Abelian subgroup         C2H     NOp   4
 Largest concise Abelian subgroup C2H     NOp   4
                         Standard orientation:                         
 ---------------------------------------------------------------------
 Center     Atomic      Atomic             Coordinates (Angstroms)
 Number     Number       Type             X           Y           Z
 ---------------------------------------------------------------------
      1          7           0       -0.000000    1.579406   -0.000000
      2          1           0       -0.200041    2.153655    0.809565
      3          1           0       -0.200041    2.153655   -0.809565
      4          1           0       -0.682976    0.829677    0.000000
      5          7           0       -0.000000   -1.579406   -0.000000
      6          1           0        0.200041   -2.153655    0.809565
      7          1           0        0.682976   -0.829677    0.000000
      8          1           0        0.200041   -2.153655   -0.809565
 ---------------------------------------------------------------------
 Rotational constants (GHZ):         138.4434601           5.5506195           5.4527766
 Leave Link  202 at Tue May 11 23:13:02 2021, MaxMem= 13421772800 cpu:               1.5 elap:               0.1
 (Enter /cm/shared/apps/gaussian/g16/C01/g16/l301.exe)
 General basis read from cards:  (5D, 7F)
 Centers:       2      3      4      6      7      8
 s 3 1.00
     Exponent=  1.3010701000D+01 Coefficients=  1.9682158000D-02
     Exponent=  1.9622572000D+00 Coefficients=  1.3796524000D-01
     Exponent=  4.4453796000D-01 Coefficients=  4.7831935000D-01
 S 1 1.00
     Exponent=  4.6178678500D-01 Coefficients=  1.0000000000D+00
 P 1 1.00
     Exponent=  8.0000000000D-01 Coefficients=  1.0000000000D+00
 P 1 1.00
     Exponent=  7.9134024200D-02 Coefficients=  1.0000000000D+00
 ****
 Centers:       1      5
 S 5 1.00
     Exponent=  1.7128415853D+03 Coefficients= -5.3934125305D-03
     Exponent=  2.5764812677D+02 Coefficients= -4.0221581118D-02
     Exponent=  5.8458245853D+01 Coefficients= -1.7931144990D-01
     Exponent=  1.6198367905D+01 Coefficients= -4.6376317823D-01
     Exponent=  5.0052600809D+00 Coefficients= -4.4171422662D-01
 S 1 1.00
     Exponent=  5.8731856571D-01 Coefficients=  1.0000000000D+00
 S 1 1.00
     Exponent=  1.8764592253D-01 Coefficients=  1.0000000000D+00
 S 1 1.00
     Exponent=  9.6171241529D-02 Coefficients=  1.0000000000D+00
 P 3 1.00
     Exponent=  1.3571470233D+01 Coefficients= -4.0072398852D-02
     Exponent=  2.9257372874D+00 Coefficients= -2.1807045028D-01
     Exponent=  7.9927750754D-01 Coefficients= -5.1294466049D-01
 P 1 1.00
     Exponent=  1.9035406677D-01 Coefficients=  1.0000000000D+00
 D 1 1.00
     Exponent=  1.0000000000D+00 Coefficients=  1.0000000000D+00
 D 1 1.00
     Exponent=  3.0979626128D-01 Coefficients=  1.0000000000D+00
 ****
 Ernie: Thresh=  0.10000D-02 Tol=  0.10000D-05 Strict=F.
 There are    30 symmetry adapted cartesian basis functions of AG  symmetry.
 There are    16 symmetry adapted cartesian basis functions of BG  symmetry.
 There are    16 symmetry adapted cartesian basis functions of AU  symmetry.
 There are    30 symmetry adapted cartesian basis functions of BU  symmetry.
 There are    28 symmetry adapted basis functions of AG  symmetry.
 There are    16 symmetry adapted basis functions of BG  symmetry.
 There are    16 symmetry adapted basis functions of AU  symmetry.
 There are    28 symmetry adapted basis functions of BU  symmetry.
    88 basis functions,   124 primitive gaussians,    92 cartesian basis functions
    10 alpha electrons       10 beta electrons
       nuclear repulsion energy        40.3142400166 Hartrees.
 IExCor= 1009 DFT=T Ex+Corr=PBEQIDH ExCW=0 ScaHFX=  0.690000
 ScaDFX=  0.310000  0.310000  0.666600  0.666600 ScalE2=  0.333400  0.333400
 IRadAn=      5 IRanWt=     -1 IRanGd=            0 ICorTp=0 IEmpDi=  4
 NAtoms=    8 NActive=    8 NUniq=    3 SFac= 4.00D+00 NAtFMM=   60 NAOKFM=F Big=F
 Integral buffers will be    131072 words long.
 Regular integral format.
 Two-electron integral symmetry is turned on.
 Leave Link  301 at Tue May 11 23:13:02 2021, MaxMem= 13421772800 cpu:               2.3 elap:               0.1
 (Enter /cm/shared/apps/gaussian/g16/C01/g16/l302.exe)
 NPDir=0 NMtPBC=     1 NCelOv=     1 NCel=       1 NClECP=     1 NCelD=      1
         NCelK=      1 NCelE2=     1 NClLst=     1 CellRange=     0.0.
 One-electron integrals computed using PRISM.
 One-electron integral symmetry used in STVInt
 NBasis=    88 RedAO= T EigKep=  3.39D-03  NBF=    28    16    16    28
 NBsUse=    88 1.00D-06 EigRej= -1.00D+00 NBFU=    28    16    16    28
 Precomputing XC quadrature grid using
 IXCGrd= 4 IRadAn=           5 IRanWt=          -1 IRanGd=           0 AccXCQ= 0.00D+00.
 Generated NRdTot=       0 NPtTot=           0 NUsed=           0 NTot=          32
 NSgBfM=    92    92    92    92    92 MxSgAt=     8 MxSgA2=     8.
 Leave Link  302 at Tue May 11 23:13:03 2021, MaxMem= 13421772800 cpu:               8.1 elap:               0.3
 (Enter /cm/shared/apps/gaussian/g16/C01/g16/l303.exe)
 DipDrv:  MaxL=1.
 Leave Link  303 at Tue May 11 23:13:03 2021, MaxMem= 13421772800 cpu:               1.4 elap:               0.1
 (Enter /cm/shared/apps/gaussian/g16/C01/g16/l401.exe)
 ExpMin= 7.91D-02 ExpMax= 1.71D+03 ExpMxC= 2.58D+02 IAcc=3 IRadAn=         5 AccDes= 0.00D+00
 Harris functional with IExCor= 1009 and IRadAn=       5 diagonalized for initial guess.
 HarFok:  IExCor= 1009 AccDes= 0.00D+00 IRadAn=         5 IDoV= 1 UseB2=F ITyADJ=14
 ICtDFT=  3500011 ScaDFX=  1.000000  1.000000  1.000000  1.000000
 FoFCou: FMM=F IPFlag=           0 FMFlag=      100000 FMFlg1=           0
         NFxFlg=           0 DoJE=T BraDBF=F KetDBF=T FulRan=T
         wScrn=  0.000000 ICntrl=       500 IOpCl=  0 I1Cent=   200000004 NGrid=           0
         NMat0=    1 NMatS0=      1 NMatT0=    0 NMatD0=    1 NMtDS0=    0 NMtDT0=    0
 Petite list used in FoFCou.
 Harris En= -112.982141994571    
 JPrj=0 DoOrth=F DoCkMO=F.
 Initial guess orbital symmetries:
       Occupied  (BU) (AG) (AG) (BU) (AG) (AU) (BG) (BU) (BU) (AG)
       Virtual   (AG) (BU) (AU) (BG) (BU) (AG) (AU) (AG) (AG) (BU)
                 (BG) (BU) (AU) (AG) (BU) (BG) (AG) (BU) (AU) (BG)
                 (BG) (AG) (BU) (AU) (AG) (BU) (AG) (BU) (AG) (BG)
                 (AU) (BG) (AU) (BU) (AG) (AG) (BU) (BU) (AG) (BU)
                 (AU) (BG) (AG) (BU) (BG) (AU) (BU) (BG) (AU) (AG)
                 (AG) (AU) (BG) (BU) (BU) (AG) (BG) (AU) (BU) (AG)
                 (BU) (AG) (AG) (BG) (AU) (BU) (AG) (BU) (AU) (AG)
                 (BG) (BU) (AG) (BU) (AU) (BU) (BG) (AG)
 The electronic state of the initial guess is 1-AG.
 Leave Link  401 at Tue May 11 23:13:03 2021, MaxMem= 13421772800 cpu:               6.8 elap:               0.3
 (Enter /cm/shared/apps/gaussian/g16/C01/g16/l502.exe)
 Keep R1 ints in memory in symmetry-blocked form, NReq=37065934.
 FoFCou: FMM=F IPFlag=           0 FMFlag=           0 FMFlg1=           0
         NFxFlg=           0 DoJE=F BraDBF=F KetDBF=F FulRan=T
         wScrn=  0.000000 ICntrl=       600 IOpCl=  0 I1Cent=           0 NGrid=           0
         NMat0=    1 NMatS0=   3916 NMatT0=    0 NMatD0=    1 NMtDS0=    0 NMtDT0=    0
 Petite list used in FoFCou.
 Closed shell SCF:
 Using DIIS extrapolation, IDIIS=  1040.
 NGot= 13421772800 LenX= 13419808644 LenY= 13419799739
 Requested convergence on RMS density matrix=1.00D-08 within 128 cycles.
 Requested convergence on MAX density matrix=1.00D-06.
 Requested convergence on             energy=1.00D-06.
 No special actions if energy rises.
 Integral accuracy reduced to 1.0D-05 until final iterations.

 Cycle   1  Pass 0  IDiag  1:
 E= -112.583273131228    
 DIIS: error= 4.54D-02 at cycle   1 NSaved=   1.
 NSaved= 1 IEnMin= 1 EnMin= -112.583273131228     IErMin= 1 ErrMin= 4.54D-02
 ErrMax= 4.54D-02  0.00D+00 EMaxC= 1.00D-01 BMatC= 1.79D-01 BMatP= 1.79D-01
 IDIUse=3 WtCom= 5.46D-01 WtEn= 4.54D-01
 Coeff-Com:  0.100D+01
 Coeff-En:   0.100D+01
 Coeff:      0.100D+01
 Gap=     0.347 Goal=   None    Shift=    0.000
 GapD=    0.347 DampG=1.000 DampE=0.500 DampFc=0.5000 IDamp=-1.
 Damping current iteration by 5.00D-01
 RMSDP=5.74D-03 MaxDP=1.36D-01              OVMax= 1.57D-01

 Cycle   2  Pass 0  IDiag  1:
 E= -112.659373759372     Delta-E=       -0.076100628144 Rises=F Damp=T
 DIIS: error= 1.05D-02 at cycle   2 NSaved=   2.
 NSaved= 2 IEnMin= 2 EnMin= -112.659373759372     IErMin= 2 ErrMin= 1.05D-02
 ErrMax= 1.05D-02  0.00D+00 EMaxC= 1.00D-01 BMatC= 7.25D-03 BMatP= 1.79D-01
 IDIUse=3 WtCom= 8.95D-01 WtEn= 1.05D-01
 Coeff-Com: -0.129D+00 0.113D+01
 Coeff-En:   0.000D+00 0.100D+01
 Coeff:     -0.116D+00 0.112D+01
 Gap=     0.442 Goal=   None    Shift=    0.000
 RMSDP=1.05D-03 MaxDP=1.42D-02 DE=-7.61D-02 OVMax= 7.53D-02

 Cycle   3  Pass 0  IDiag  1:
 E= -112.726193027591     Delta-E=       -0.066819268219 Rises=F Damp=F
 DIIS: error= 7.18D-04 at cycle   3 NSaved=   3.
 NSaved= 3 IEnMin= 3 EnMin= -112.726193027591     IErMin= 3 ErrMin= 7.18D-04
 ErrMax= 7.18D-04  0.00D+00 EMaxC= 1.00D-01 BMatC= 5.54D-05 BMatP= 7.25D-03
 IDIUse=3 WtCom= 9.93D-01 WtEn= 7.18D-03
 Coeff-Com: -0.840D-02-0.464D-01 0.105D+01
 Coeff-En:   0.000D+00 0.000D+00 0.100D+01
 Coeff:     -0.834D-02-0.461D-01 0.105D+01
 Gap=     0.443 Goal=   None    Shift=    0.000
 RMSDP=9.92D-05 MaxDP=1.48D-03 DE=-6.68D-02 OVMax= 2.62D-03

 Cycle   4  Pass 0  IDiag  1:
 E= -112.726253902228     Delta-E=       -0.000060874638 Rises=F Damp=F
 DIIS: error= 8.99D-05 at cycle   4 NSaved=   4.
 NSaved= 4 IEnMin= 4 EnMin= -112.726253902228     IErMin= 4 ErrMin= 8.99D-05
 ErrMax= 8.99D-05  0.00D+00 EMaxC= 1.00D-01 BMatC= 7.82D-07 BMatP= 5.54D-05
 IDIUse=1 WtCom= 1.00D+00 WtEn= 0.00D+00
 Coeff-Com:  0.219D-02 0.640D-02-0.220D+00 0.121D+01
 Coeff:      0.219D-02 0.640D-02-0.220D+00 0.121D+01
 Gap=     0.443 Goal=   None    Shift=    0.000
 RMSDP=2.98D-05 MaxDP=5.34D-04 DE=-6.09D-05 OVMax= 1.01D-03

 Cycle   5  Pass 0  IDiag  1:
 E= -112.726256280349     Delta-E=       -0.000002378120 Rises=F Damp=F
 DIIS: error= 2.99D-05 at cycle   5 NSaved=   5.
 NSaved= 5 IEnMin= 5 EnMin= -112.726256280349     IErMin= 5 ErrMin= 2.99D-05
 ErrMax= 2.99D-05  0.00D+00 EMaxC= 1.00D-01 BMatC= 4.99D-08 BMatP= 7.82D-07
 IDIUse=1 WtCom= 1.00D+00 WtEn= 0.00D+00
 Coeff-Com:  0.526D-03 0.234D-02-0.634D-01 0.133D+00 0.927D+00
 Coeff:      0.526D-03 0.234D-02-0.634D-01 0.133D+00 0.927D+00
 Gap=     0.443 Goal=   None    Shift=    0.000
 RMSDP=7.02D-06 MaxDP=1.46D-04 DE=-2.38D-06 OVMax= 2.05D-04

 Initial convergence to 1.0D-05 achieved.  Increase integral accuracy.
 Cycle   6  Pass 1  IDiag  1:
 E= -112.726257828084     Delta-E=       -0.000001547736 Rises=F Damp=F
 DIIS: error= 5.18D-06 at cycle   1 NSaved=   1.
 NSaved= 1 IEnMin= 1 EnMin= -112.726257828084     IErMin= 1 ErrMin= 5.18D-06
 ErrMax= 5.18D-06  0.00D+00 EMaxC= 1.00D-01 BMatC= 1.94D-09 BMatP= 1.94D-09
 IDIUse=1 WtCom= 1.00D+00 WtEn= 0.00D+00
 Coeff-Com:  0.100D+01
 Coeff:      0.100D+01
 Gap=     0.443 Goal=   None    Shift=    0.000
 RMSDP=7.02D-06 MaxDP=1.46D-04 DE=-1.55D-06 OVMax= 5.20D-05

 Cycle   7  Pass 1  IDiag  1:
 E= -112.726257834996     Delta-E=       -0.000000006911 Rises=F Damp=F
 DIIS: error= 1.72D-06 at cycle   2 NSaved=   2.
 NSaved= 2 IEnMin= 2 EnMin= -112.726257834996     IErMin= 2 ErrMin= 1.72D-06
 ErrMax= 1.72D-06  0.00D+00 EMaxC= 1.00D-01 BMatC= 2.45D-10 BMatP= 1.94D-09
 IDIUse=1 WtCom= 1.00D+00 WtEn= 0.00D+00
 Coeff-Com: -0.226D+00 0.123D+01
 Coeff:     -0.226D+00 0.123D+01
 Gap=     0.443 Goal=   None    Shift=    0.000
 RMSDP=9.09D-07 MaxDP=2.05D-05 DE=-6.91D-09 OVMax= 2.42D-05

 Cycle   8  Pass 1  IDiag  1:
 E= -112.726257835994     Delta-E=       -0.000000000998 Rises=F Damp=F
 DIIS: error= 4.66D-07 at cycle   3 NSaved=   3.
 NSaved= 3 IEnMin= 3 EnMin= -112.726257835994     IErMin= 3 ErrMin= 4.66D-07
 ErrMax= 4.66D-07  0.00D+00 EMaxC= 1.00D-01 BMatC= 2.07D-11 BMatP= 2.45D-10
 IDIUse=1 WtCom= 1.00D+00 WtEn= 0.00D+00
 Coeff-Com: -0.119D+00 0.133D+00 0.985D+00
 Coeff:     -0.119D+00 0.133D+00 0.985D+00
 Gap=     0.443 Goal=   None    Shift=    0.000
 RMSDP=2.61D-07 MaxDP=5.84D-06 DE=-9.98D-10 OVMax= 6.86D-06

 Cycle   9  Pass 1  IDiag  1:
 E= -112.726257836060     Delta-E=       -0.000000000067 Rises=F Damp=F
 DIIS: error= 7.88D-08 at cycle   4 NSaved=   4.
 NSaved= 4 IEnMin= 4 EnMin= -112.726257836060     IErMin= 4 ErrMin= 7.88D-08
 ErrMax= 7.88D-08  0.00D+00 EMaxC= 1.00D-01 BMatC= 3.37D-13 BMatP= 2.07D-11
 IDIUse=1 WtCom= 1.00D+00 WtEn= 0.00D+00
 Coeff-Com:  0.204D-01-0.433D-01-0.132D+00 0.115D+01
 Coeff:      0.204D-01-0.433D-01-0.132D+00 0.115D+01
 Gap=     0.443 Goal=   None    Shift=    0.000
 RMSDP=2.27D-08 MaxDP=4.28D-07 DE=-6.66D-11 OVMax= 6.87D-07

 Cycle  10  Pass 1  IDiag  1:
 E= -112.726257836061     Delta-E=       -0.000000000001 Rises=F Damp=F
 DIIS: error= 3.62D-08 at cycle   5 NSaved=   5.
 NSaved= 5 IEnMin= 5 EnMin= -112.726257836061     IErMin= 5 ErrMin= 3.62D-08
 ErrMax= 3.62D-08  0.00D+00 EMaxC= 1.00D-01 BMatC= 6.77D-14 BMatP= 3.37D-13
 IDIUse=1 WtCom= 1.00D+00 WtEn= 0.00D+00
 Coeff-Com:  0.124D-01-0.202D-01-0.896D-01 0.392D+00 0.705D+00
 Coeff:      0.124D-01-0.202D-01-0.896D-01 0.392D+00 0.705D+00
 Gap=     0.443 Goal=   None    Shift=    0.000
 RMSDP=3.23D-09 MaxDP=8.17D-08 DE=-1.05D-12 OVMax= 1.19D-07

 SCF Done:  E(RPBEQIDH) =  -112.726257836     A.U. after   10 cycles
            NFock= 10  Conv=0.32D-08     -V/T= 2.0076
 KE= 1.118795606020D+02 PE=-3.438900267958D+02 EE= 7.896996834113D+01
 Leave Link  502 at Tue May 11 23:13:03 2021, MaxMem= 13421772800 cpu:              12.7 elap:               0.4
 (Enter /cm/shared/apps/gaussian/g16/C01/g16/l801.exe)
 DoSCS=T DFT=T ScalE2(SS,OS)=  0.333400  0.333400
 ExpMin= 7.91D-02 ExpMax= 1.71D+03 ExpMxC= 2.58D+02 IAcc=3 IRadAn=         5 AccDes= 0.00D+00
 HarFok:  IExCor=  205 AccDes= 0.00D+00 IRadAn=         5 IDoV=-2 UseB2=F ITyADJ=14
 ICtDFT= 12500011 ScaDFX=  1.000000  1.000000  1.000000  1.000000
 Largest valence mixing into a core orbital is  8.94D-05
 Largest core mixing into a valence orbital is  2.86D-05
 Range of M.O.s used for correlation:     3    88
 NBasis=    88 NAE=    10 NBE=    10 NFC=     2 NFV=     0
 NROrb=     86 NOA=     8 NOB=     8 NVA=    78 NVB=    78
 Leave Link  801 at Tue May 11 23:13:04 2021, MaxMem= 13421772800 cpu:               3.6 elap:               0.2
 (Enter /cm/shared/apps/gaussian/g16/C01/g16/l906.exe)
 DoSCS=T DFT=T ScalE2(SS,OS)=  0.333400  0.333400
 FulOut=F Deriv=F AODrv=F NAtomX=     8
   MMem=        6550  MDisk=           8 MDiskD=           8
  W3Min=       57408 MinDsk=      170662 NBas6D=          92
 NBas2D=        4386    NTT=        4278    LW2=     2000000
    MDV= 13421707999 MDiskM=     2025922 NBas2p=        1658
 Fully in-core method, ICMem=    25692948.
 IMap=   1   2   3   4   5   6   7   8
 JobTyp=1 Pass  1 fully in-core, NPsUse= 32.
 Compute canonical integrals.
 FoFCou: FMM=F IPFlag=           0 FMFlag=           0 FMFlg1=           0
         NFxFlg=           0 DoJE=F BraDBF=F KetDBF=F FulRan=T
         wScrn=  0.000000 ICntrl=       600 IOpCl=  1 I1Cent=           0 NGrid=           0
         NMat0=    1 NMatS0=   4386 NMatT0=    0 NMatD0=    1 NMtDS0=    0 NMtDT0=    0
 Symmetry not used in FoFCou.
 Spin components of T(2) and E(2):
     alpha-alpha T2 =       0.1950795976D-01 E2=     -0.1784025917D-01
     alpha-beta  T2 =       0.1212213865D+00 E2=     -0.1173527229D+00
     beta-beta   T2 =       0.1950795976D-01 E2=     -0.1784025917D-01
 The integrals were generated   1 times.
 E2(PBEQIDH) =    -0.1530332413D+00 E(PBEQIDH) =    -0.11287929107732D+03
 Leave Link  906 at Tue May 11 23:13:04 2021, MaxMem= 13421772800 cpu:              11.1 elap:               0.4
 (Enter /cm/shared/apps/gaussian/g16/C01/g16/l601.exe)
 Copying SCF densities to generalized density rwf, IOpCl= 0 IROHF=0.

 **********************************************************************

            Population analysis using the SCF Density.

 **********************************************************************

 Orbital symmetries:
       Occupied  (BU) (AG) (AG) (BU) (AG) (AU) (BG) (BU) (BU) (AG)
       Virtual   (AG) (BU) (AU) (BG) (AG) (BU) (AU) (AG) (AG) (BG)
                 (BU) (BU) (AU) (BU) (BG) (AG) (AU) (BG) (AG) (BU)
                 (BG) (BU) (AG) (AU) (AG) (BU) (AG) (AG) (BU) (AU)
                 (BG) (BG) (AU) (BU) (AG) (AG) (BU) (BU) (AU) (AG)
                 (BU) (BG) (BU) (AG) (BG) (AU) (BU) (BG) (AU) (AG)
                 (BU) (AG) (AU) (BG) (AG) (BU) (BU) (BG) (AU) (AG)
                 (BU) (AG) (AG) (BG) (AU) (BU) (AG) (BU) (AU) (AG)
                 (BG) (BU) (AG) (BU) (BU) (AU) (BG) (AG)
 The electronic state is 1-AG.
 Alpha  occ. eigenvalues --  -15.05547 -15.05545  -1.03163  -1.02411  -0.58719
 Alpha  occ. eigenvalues --   -0.57272  -0.57032  -0.55449  -0.37673  -0.37441
 Alpha virt. eigenvalues --    0.06878   0.08764   0.12738   0.13829   0.15385
 Alpha virt. eigenvalues --    0.15560   0.17137   0.18359   0.18881   0.19558
 Alpha virt. eigenvalues --    0.20054   0.20643   0.22886   0.26100   0.28037
 Alpha virt. eigenvalues --    0.30666   0.33627   0.34070   0.36523   0.38407
 Alpha virt. eigenvalues --    0.56647   0.57652   0.57700   0.58373   0.66395
 Alpha virt. eigenvalues --    0.76619   0.80519   0.81051   0.81313   0.82737
 Alpha virt. eigenvalues --    0.83176   0.85293   0.85559   0.89299   0.92536
 Alpha virt. eigenvalues --    0.97423   1.04006   1.06530   1.29051   1.29615
 Alpha virt. eigenvalues --    1.30899   1.38242   1.38549   1.40669   1.80724
 Alpha virt. eigenvalues --    1.82185   1.84156   1.90420   1.91356   1.99713
 Alpha virt. eigenvalues --    2.26408   2.27302   2.30952   2.30958   2.32559
 Alpha virt. eigenvalues --    2.34614   2.42163   2.42220   2.42236   2.47699
 Alpha virt. eigenvalues --    2.67024   2.69132   3.04958   3.06632   3.07144
 Alpha virt. eigenvalues --    3.15625   3.21755   3.26385   3.41186   3.42912
 Alpha virt. eigenvalues --    3.43590   3.45136   4.45533   4.47811   4.53900
 Alpha virt. eigenvalues --    4.54711   4.55403   4.63926
          Condensed to atoms (all electrons):
               1          2          3          4          5          6
     1  N    6.452005   0.414398   0.414398   0.372673   0.007018  -0.000072
     2  H    0.414398   0.359853   0.011169   0.004728  -0.000072   0.000091
     3  H    0.414398   0.011169   0.359853   0.004728  -0.000072   0.000050
     4  H    0.372673   0.004728   0.004728   0.347096   0.016812  -0.000523
     5  N    0.007018  -0.000072  -0.000072   0.016812   6.452005   0.414398
     6  H   -0.000072   0.000091   0.000050  -0.000523   0.414398   0.359853
     7  H    0.016812  -0.000523  -0.000523  -0.001539   0.372673   0.004728
     8  H   -0.000072   0.000050   0.000091  -0.000523   0.414398   0.011169
               7          8
     1  N    0.016812  -0.000072
     2  H   -0.000523   0.000050
     3  H   -0.000523   0.000091
     4  H   -0.001539  -0.000523
     5  N    0.372673   0.414398
     6  H    0.004728   0.011169
     7  H    0.347096   0.004728
     8  H    0.004728   0.359853
 Mulliken charges:
               1
     1  N   -0.677160
     2  H    0.210306
     3  H    0.210306
     4  H    0.256549
     5  N   -0.677160
     6  H    0.210306
     7  H    0.256549
     8  H    0.210306
 Sum of Mulliken charges =   0.00000
 Mulliken charges with hydrogens summed into heavy atoms:
               1
     1  N    0.000000
     5  N    0.000000
 Electronic spatial extent (au):  <R**2>=            238.4894
 Charge=              0.0000 electrons
 Dipole moment (field-independent basis, Debye):
    X=              0.0000    Y=             -0.0000    Z=             -0.0000  Tot=              0.0000
 Quadrupole moment (field-independent basis, Debye-Ang):
   XX=            -17.0577   YY=             -9.8739   ZZ=            -12.5329
   XY=             -3.4920   XZ=              0.0000   YZ=             -0.0000
 Traceless Quadrupole moment (field-independent basis, Debye-Ang):
   XX=             -3.9029   YY=              3.2810   ZZ=              0.6219
   XY=             -3.4920   XZ=              0.0000   YZ=             -0.0000
 Octapole moment (field-independent basis, Debye-Ang**2):
  XXX=              0.0000  YYY=             -0.0000  ZZZ=             -0.0000  XYY=              0.0000
  XXY=              0.0000  XXZ=             -0.0000  XZZ=              0.0000  YZZ=              0.0000
  YYZ=             -0.0000  XYZ=              0.0000
 Hexadecapole moment (field-independent basis, Debye-Ang**3):
 XXXX=            -23.1132 YYYY=           -211.2016 ZZZZ=            -20.2085 XXXY=              4.7329
 XXXZ=              0.0000 YYYX=             -1.0180 YYYZ=             -0.0000 ZZZX=              0.0000
 ZZZY=             -0.0000 XXYY=            -54.4993 XXZZ=             -7.8116 YYZZ=            -31.6868
 XXYZ=              0.0000 YYXZ=              0.0000 ZZXY=             -0.0769
 N-N= 4.031424001657D+01 E-N=-3.438900242452D+02  KE= 1.118795606020D+02
 Symmetry AG   KE= 5.312282792028D+01
 Symmetry BG   KE= 2.646705709189D+00
 Symmetry AU   KE= 2.618114320822D+00
 Symmetry BU   KE= 5.349191265174D+01
 Leave Link  601 at Tue May 11 23:13:04 2021, MaxMem= 13421772800 cpu:               5.0 elap:               0.2
 (Enter /cm/shared/apps/gaussian/g16/C01/g16/l608.exe)
 IExCor= 1009 DFT=T Ex+Corr=PBEQIDH ExCW=0 ScaHFX=  0.690000
 ScaDFX=  0.310000  0.310000  0.666600  0.666600 ScalE2=  0.333400  0.333400
 IRadAn=      4 IRanWt=     -1 IRanGd=            0 ICorTp=0 IEmpDi=  4
 A total of   1 models will be applied.

 Results using SCF Density:
 FoFJK:  IHMeth= 0 ICntrl=     500 DoSepK=F KAlg= 0 I1Cent=           0 FoldK=F
 IRaf=         0 NMat=       1 IRICut=       1 DoRegI=T DoRafI=F ISym2E= 0 IDoP0=0 IntGTp=1.
 FoFCou: FMM=F IPFlag=           0 FMFlag=           0 FMFlg1=           0
         NFxFlg=           0 DoJE=F BraDBF=F KetDBF=F FulRan=T
         wScrn=  0.000000 ICntrl=       500 IOpCl=  1 I1Cent=           0 NGrid=           0
         NMat0=    1 NMatS0=      1 NMatT0=    0 NMatD0=    1 NMtDS0=    0 NMtDT0=    0
 Symmetry not used in FoFCou.
 ET=  111.879561 EV= -343.890024 EJ=   94.675891 EK=  -15.298026 ENuc=   40.314240

 A=0 I=   1 IExCor= 1009 IRadAn=       4 ScaHFX=  0.690000
            ScaDFX=  0.310000  0.310000  0.666600  0.666600
 HFx=  0.000000  0.000000  1.000000  0.000000  0.000000
 DFx=  0.000000  0.000000  1.000000  0.000000  0.000000
 DFc=  0.000000  0.000000  1.000000  0.000000  0.000000
            ENTVJ=  -97.020332 Ex=  -15.281482 Ec=   -0.424442 ETotM2e= -196.8465097195  ETot= -112.7262563993
 Leave Link  608 at Tue May 11 23:13:04 2021, MaxMem= 13421772800 cpu:               6.2 elap:               0.2
 (Enter /cm/shared/apps/gaussian/g16/C01/g16/l9999.exe)

 Test job not archived.
 1\1\GINC-NODE006\SP\RPBEQIDH-FC\Gen\H6N2\TIRRI\11-May-2021\0\\#P PBEQI
 DH/gen INT=ultrafine SCF=tight Extralinks=L608\\0_dimer DH-SVPD --> Hy
 drogen Def2-SVPD --> Oxygen\\0,1\N,0,-1.578718,-0.046611,0.\H,0,-2.158
 621,0.136396,-0.809565\H,0,-2.158621,0.136396,0.809565\H,0,-0.849471,0
 .658193,0.\N,0,1.578718,0.046611,0.\H,0,2.158621,-0.136396,-0.809565\H
 ,0,0.849471,-0.658193,0.\H,0,2.158621,-0.136396,0.809565\\Version=ES64
 L-G16RevC.01\State=1-AG\HF=-112.7262578\MP2=-112.8792911\RMSD=3.233e-0
 9\PG=C02H [SGH(H2N2),X(H4)]\\@


 IT IS A CAPITAL MISTAKE TO THEORIZE BEFORE ONE HAS
 DATA.  INSENSIBLY ONE BEGINS TO TWIST FACTS TO SUIT
 THEORIES RATHER THAN THEORIES TO SUIT FACTS.

                                         -- SHERLOCK HOLMES
 Job cpu time:       0 days  0 hours  1 minutes  3.8 seconds.
 Elapsed time:       0 days  0 hours  0 minutes  2.5 seconds.
 File lengths (MBytes):  RWF=     10 Int=      0 D2E=      0 Chk=      2 Scr=      1
 Normal termination of Gaussian 16 at Tue May 11 23:13:04 2021.
