 Entering Gaussian System, Link 0=g16
 Input=monomer_A.com
 Output=monomer_A.log
 Initial command:
 /cm/shared/apps/gaussian/g16/C01/g16/l1.exe "/local/scratch/tirri/Gau-123027.inp" -scrdir="/local/scratch/tirri/"
 Entering Link 1 = /cm/shared/apps/gaussian/g16/C01/g16/l1.exe PID=    123028.
  
 Copyright (c) 1988-2019, Gaussian, Inc.  All Rights Reserved.
  
 This is part of the Gaussian(R) 16 program.  It is based on
 the Gaussian(R) 09 system (copyright 2009, Gaussian, Inc.),
 the Gaussian(R) 03 system (copyright 2003, Gaussian, Inc.),
 the Gaussian(R) 98 system (copyright 1998, Gaussian, Inc.),
 the Gaussian(R) 94 system (copyright 1995, Gaussian, Inc.),
 the Gaussian 92(TM) system (copyright 1992, Gaussian, Inc.),
 the Gaussian 90(TM) system (copyright 1990, Gaussian, Inc.),
 the Gaussian 88(TM) system (copyright 1988, Gaussian, Inc.),
 the Gaussian 86(TM) system (copyright 1986, Carnegie Mellon
 University), and the Gaussian 82(TM) system (copyright 1983,
 Carnegie Mellon University). Gaussian is a federally registered
 trademark of Gaussian, Inc.
  
 This software contains proprietary and confidential information,
 including trade secrets, belonging to Gaussian, Inc.
  
 This software is provided under written license and may be
 used, copied, transmitted, or stored only in accord with that
 written license.
  
 The following legend is applicable only to US Government
 contracts under FAR:
  
                    RESTRICTED RIGHTS LEGEND
  
 Use, reproduction and disclosure by the US Government is
 subject to restrictions as set forth in subparagraphs (a)
 and (c) of the Commercial Computer Software - Restricted
 Rights clause in FAR 52.227-19.
  
 Gaussian, Inc.
 340 Quinnipiac St., Bldg. 40, Wallingford CT 06492
  
  
 ---------------------------------------------------------------
 Warning -- This program may not be used in any manner that
 competes with the business of Gaussian, Inc. or will provide
 assistance to any competitor of Gaussian, Inc.  The licensee
 of this program is prohibited from giving any competitor of
 Gaussian, Inc. access to this program.  By using this program,
 the user acknowledges that Gaussian, Inc. is engaged in the
 business of creating and licensing software in the field of
 computational chemistry and represents and warrants to the
 licensee that it is not a competitor of Gaussian, Inc. and that
 it will not use this program in any manner prohibited above.
 ---------------------------------------------------------------
  

 Cite this work as:
 Gaussian 16, Revision C.01,
 M. J. Frisch, G. W. Trucks, H. B. Schlegel, G. E. Scuseria, 
 M. A. Robb, J. R. Cheeseman, G. Scalmani, V. Barone, 
 G. A. Petersson, H. Nakatsuji, X. Li, M. Caricato, A. V. Marenich, 
 J. Bloino, B. G. Janesko, R. Gomperts, B. Mennucci, H. P. Hratchian, 
 J. V. Ortiz, A. F. Izmaylov, J. L. Sonnenberg, D. Williams-Young, 
 F. Ding, F. Lipparini, F. Egidi, J. Goings, B. Peng, A. Petrone, 
 T. Henderson, D. Ranasinghe, V. G. Zakrzewski, J. Gao, N. Rega, 
 G. Zheng, W. Liang, M. Hada, M. Ehara, K. Toyota, R. Fukuda, 
 J. Hasegawa, M. Ishida, T. Nakajima, Y. Honda, O. Kitao, H. Nakai, 
 T. Vreven, K. Throssell, J. A. Montgomery, Jr., J. E. Peralta, 
 F. Ogliaro, M. J. Bearpark, J. J. Heyd, E. N. Brothers, K. N. Kudin, 
 V. N. Staroverov, T. A. Keith, R. Kobayashi, J. Normand, 
 K. Raghavachari, A. P. Rendell, J. C. Burant, S. S. Iyengar, 
 J. Tomasi, M. Cossi, J. M. Millam, M. Klene, C. Adamo, R. Cammi, 
 J. W. Ochterski, R. L. Martin, K. Morokuma, O. Farkas, 
 J. B. Foresman, and D. J. Fox, Gaussian, Inc., Wallingford CT, 2019.
 
 ******************************************
 Gaussian 16:  ES64L-G16RevC.01  3-Jul-2019
                11-May-2021 
 ******************************************
 %CHK=monomer_A.chk
 %MEM=100GB
 %Nprocs=32
 Will use up to   32 processors via shared memory.
 ------------------------------------------------------
 #P PBEQIDH/gen INT=ultrafine SCF=tight Extralinks=L608
 ------------------------------------------------------
 1/38=1,172=1/1;
 2/12=2,17=6,18=5,40=1/2;
 3/5=7,11=9,25=1,30=1,74=-79,75=-5/1,2,3;
 4//1;
 5/5=2,32=2,38=5/2;
 8/10=1/1;
 9/16=-3/6;
 6/7=2,8=2,9=2,10=2/1,8;
 99/5=1,9=1/99;
 Leave Link    1 at Tue May 11 23:13:05 2021, MaxMem= 13421772800 cpu:               1.0 elap:               0.0
 (Enter /cm/shared/apps/gaussian/g16/C01/g16/l101.exe)
 -----------------------------------------------------
 0_monomer_A DH-SVPD --> Hydrogen Def2-SVPD --> Oxygen
 -----------------------------------------------------
 Symbolic Z-matrix:
 Charge =  0 Multiplicity = 1
 n                    -1.57872  -0.04661   0. 
 h                    -2.15862   0.1364   -0.80957 
 h                    -2.15862   0.1364    0.80957 
 h                    -0.84947   0.65819   0. 
 
 ITRead=  0  0  0  0
 MicOpt= -1 -1 -1 -1
 NAtoms=      4 NQM=        4 NQMF=       0 NMMI=      0 NMMIF=      0
                NMic=       0 NMicF=      0.
                    Isotopes and Nuclear Properties:
 (Nuclear quadrupole moments (NQMom) in fm**2, nuclear magnetic moments (NMagM)
  in nuclear magnetons)

  Atom         1           2           3           4
 IAtWgt=          14           1           1           1
 AtmWgt=  14.0030740   1.0078250   1.0078250   1.0078250
 NucSpn=           2           1           1           1
 AtZEff=  -0.0000000  -0.0000000  -0.0000000  -0.0000000
 NQMom=    2.0440000   0.0000000   0.0000000   0.0000000
 NMagM=    0.4037610   2.7928460   2.7928460   2.7928460
 AtZNuc=   7.0000000   1.0000000   1.0000000   1.0000000
 Leave Link  101 at Tue May 11 23:13:05 2021, MaxMem= 13421772800 cpu:               2.8 elap:               0.1
 (Enter /cm/shared/apps/gaussian/g16/C01/g16/l202.exe)
                          Input orientation:                          
 ---------------------------------------------------------------------
 Center     Atomic      Atomic             Coordinates (Angstroms)
 Number     Number       Type             X           Y           Z
 ---------------------------------------------------------------------
      1          7           0       -1.578718   -0.046611    0.000000
      2          1           0       -2.158621    0.136396   -0.809565
      3          1           0       -2.158621    0.136396    0.809565
      4          1           0       -0.849471    0.658193    0.000000
 ---------------------------------------------------------------------
                    Distance matrix (angstroms):
                    1          2          3          4
     1  N    0.000000
     2  H    1.012509   0.000000
     3  H    1.012509   1.619130   0.000000
     4  H    1.014174   1.625282   1.625282   0.000000
 Stoichiometry    H3N
 Framework group  CS[SG(HN),X(H2)]
 Deg. of freedom     4
 Full point group                 CS      NOp   2
 Largest Abelian subgroup         CS      NOp   2
 Largest concise Abelian subgroup CS      NOp   2
                         Standard orientation:                         
 ---------------------------------------------------------------------
 Center     Atomic      Atomic             Coordinates (Angstroms)
 Number     Number       Type             X           Y           Z
 ---------------------------------------------------------------------
      1          7           0        0.000000    0.115414   -0.000000
      2          1           0       -0.469767   -0.270719    0.809565
      3          1           0       -0.469767   -0.270719   -0.809565
      4          1           0        0.939534   -0.266459   -0.000000
 ---------------------------------------------------------------------
 Rotational constants (GHZ):         299.2060748         296.8484272         190.3132845
 Leave Link  202 at Tue May 11 23:13:05 2021, MaxMem= 13421772800 cpu:               0.5 elap:               0.0
 (Enter /cm/shared/apps/gaussian/g16/C01/g16/l301.exe)
 General basis read from cards:  (5D, 7F)
 Centers:       2      3      4
 s 3 1.00
     Exponent=  1.3010701000D+01 Coefficients=  1.9682158000D-02
     Exponent=  1.9622572000D+00 Coefficients=  1.3796524000D-01
     Exponent=  4.4453796000D-01 Coefficients=  4.7831935000D-01
 S 1 1.00
     Exponent=  4.6178678500D-01 Coefficients=  1.0000000000D+00
 P 1 1.00
     Exponent=  8.0000000000D-01 Coefficients=  1.0000000000D+00
 P 1 1.00
     Exponent=  7.9134024200D-02 Coefficients=  1.0000000000D+00
 ****
 Centers:       1
 S 5 1.00
     Exponent=  1.7128415853D+03 Coefficients= -5.3934125305D-03
     Exponent=  2.5764812677D+02 Coefficients= -4.0221581118D-02
     Exponent=  5.8458245853D+01 Coefficients= -1.7931144990D-01
     Exponent=  1.6198367905D+01 Coefficients= -4.6376317823D-01
     Exponent=  5.0052600809D+00 Coefficients= -4.4171422662D-01
 S 1 1.00
     Exponent=  5.8731856571D-01 Coefficients=  1.0000000000D+00
 S 1 1.00
     Exponent=  1.8764592253D-01 Coefficients=  1.0000000000D+00
 S 1 1.00
     Exponent=  9.6171241529D-02 Coefficients=  1.0000000000D+00
 P 3 1.00
     Exponent=  1.3571470233D+01 Coefficients= -4.0072398852D-02
     Exponent=  2.9257372874D+00 Coefficients= -2.1807045028D-01
     Exponent=  7.9927750754D-01 Coefficients= -5.1294466049D-01
 P 1 1.00
     Exponent=  1.9035406677D-01 Coefficients=  1.0000000000D+00
 D 1 1.00
     Exponent=  1.0000000000D+00 Coefficients=  1.0000000000D+00
 D 1 1.00
     Exponent=  3.0979626128D-01 Coefficients=  1.0000000000D+00
 ****
 Ernie: Thresh=  0.10000D-02 Tol=  0.10000D-05 Strict=F.
 There are    30 symmetry adapted cartesian basis functions of A'  symmetry.
 There are    16 symmetry adapted cartesian basis functions of A"  symmetry.
 There are    28 symmetry adapted basis functions of A'  symmetry.
 There are    16 symmetry adapted basis functions of A"  symmetry.
    44 basis functions,    62 primitive gaussians,    46 cartesian basis functions
     5 alpha electrons        5 beta electrons
       nuclear repulsion energy        11.9474317765 Hartrees.
 IExCor= 1009 DFT=T Ex+Corr=PBEQIDH ExCW=0 ScaHFX=  0.690000
 ScaDFX=  0.310000  0.310000  0.666600  0.666600 ScalE2=  0.333400  0.333400
 IRadAn=      5 IRanWt=     -1 IRanGd=            0 ICorTp=0 IEmpDi=  4
 NAtoms=    4 NActive=    4 NUniq=    3 SFac= 1.78D+00 NAtFMM=   60 NAOKFM=F Big=F
 Integral buffers will be    131072 words long.
 Regular integral format.
 Two-electron integral symmetry is turned on.
 Leave Link  301 at Tue May 11 23:13:05 2021, MaxMem= 13421772800 cpu:               2.0 elap:               0.1
 (Enter /cm/shared/apps/gaussian/g16/C01/g16/l302.exe)
 NPDir=0 NMtPBC=     1 NCelOv=     1 NCel=       1 NClECP=     1 NCelD=      1
         NCelK=      1 NCelE2=     1 NClLst=     1 CellRange=     0.0.
 One-electron integrals computed using PRISM.
 One-electron integral symmetry used in STVInt
 NBasis=    44 RedAO= T EigKep=  6.73D-03  NBF=    28    16
 NBsUse=    44 1.00D-06 EigRej= -1.00D+00 NBFU=    28    16
 Precomputing XC quadrature grid using
 IXCGrd= 4 IRadAn=           5 IRanWt=          -1 IRanGd=           0 AccXCQ= 0.00D+00.
 Generated NRdTot=       0 NPtTot=           0 NUsed=           0 NTot=          32
 NSgBfM=    46    46    46    46    46 MxSgAt=     4 MxSgA2=     4.
 Leave Link  302 at Tue May 11 23:13:05 2021, MaxMem= 13421772800 cpu:               3.4 elap:               0.1
 (Enter /cm/shared/apps/gaussian/g16/C01/g16/l303.exe)
 DipDrv:  MaxL=1.
 Leave Link  303 at Tue May 11 23:13:05 2021, MaxMem= 13421772800 cpu:               2.2 elap:               0.1
 (Enter /cm/shared/apps/gaussian/g16/C01/g16/l401.exe)
 ExpMin= 7.91D-02 ExpMax= 1.71D+03 ExpMxC= 2.58D+02 IAcc=3 IRadAn=         5 AccDes= 0.00D+00
 Harris functional with IExCor= 1009 and IRadAn=       5 diagonalized for initial guess.
 HarFok:  IExCor= 1009 AccDes= 0.00D+00 IRadAn=         5 IDoV= 1 UseB2=F ITyADJ=14
 ICtDFT=  3500011 ScaDFX=  1.000000  1.000000  1.000000  1.000000
 FoFCou: FMM=F IPFlag=           0 FMFlag=      100000 FMFlg1=           0
         NFxFlg=           0 DoJE=T BraDBF=F KetDBF=T FulRan=T
         wScrn=  0.000000 ICntrl=       500 IOpCl=  0 I1Cent=   200000004 NGrid=           0
         NMat0=    1 NMatS0=      1 NMatT0=    0 NMatD0=    1 NMtDS0=    0 NMtDT0=    0
 Petite list used in FoFCou.
 Harris En= -56.4912437947227    
 JPrj=0 DoOrth=F DoCkMO=F.
 Initial guess orbital symmetries:
       Occupied  (A') (A') (A') (A") (A')
       Virtual   (A') (A') (A") (A') (A") (A') (A') (A") (A') (A")
                 (A") (A') (A') (A') (A") (A') (A") (A') (A') (A')
                 (A") (A') (A") (A') (A") (A') (A") (A') (A") (A')
                 (A') (A") (A') (A') (A') (A") (A') (A') (A")
 The electronic state of the initial guess is 1-A'.
 Leave Link  401 at Tue May 11 23:13:05 2021, MaxMem= 13421772800 cpu:               3.7 elap:               0.1
 (Enter /cm/shared/apps/gaussian/g16/C01/g16/l502.exe)
 Keep R1 ints in memory in symmetry-blocked form, NReq=28287727.
 FoFCou: FMM=F IPFlag=           0 FMFlag=           0 FMFlg1=           0
         NFxFlg=           0 DoJE=F BraDBF=F KetDBF=F FulRan=T
         wScrn=  0.000000 ICntrl=       600 IOpCl=  0 I1Cent=           0 NGrid=           0
         NMat0=    1 NMatS0=    990 NMatT0=    0 NMatD0=    1 NMtDS0=    0 NMtDT0=    0
 Petite list used in FoFCou.
 Closed shell SCF:
 Using DIIS extrapolation, IDIIS=  1040.
 NGot= 13421772800 LenX= 13421516083 LenY= 13421513526
 Requested convergence on RMS density matrix=1.00D-08 within 128 cycles.
 Requested convergence on MAX density matrix=1.00D-06.
 Requested convergence on             energy=1.00D-06.
 No special actions if energy rises.
 Integral accuracy reduced to 1.0D-05 until final iterations.

 Cycle   1  Pass 0  IDiag  1:
 E= -56.2867192785633    
 DIIS: error= 4.65D-02 at cycle   1 NSaved=   1.
 NSaved= 1 IEnMin= 1 EnMin= -56.2867192785633     IErMin= 1 ErrMin= 4.65D-02
 ErrMax= 4.65D-02  0.00D+00 EMaxC= 1.00D-01 BMatC= 9.18D-02 BMatP= 9.18D-02
 IDIUse=3 WtCom= 5.35D-01 WtEn= 4.65D-01
 Coeff-Com:  0.100D+01
 Coeff-En:   0.100D+01
 Coeff:      0.100D+01
 Gap=     0.345 Goal=   None    Shift=    0.000
 GapD=    0.345 DampG=1.000 DampE=0.500 DampFc=0.5000 IDamp=-1.
 Damping current iteration by 5.00D-01
 RMSDP=7.69D-03 MaxDP=1.42D-01              OVMax= 1.57D-01

 Cycle   2  Pass 0  IDiag  1:
 E= -56.3260342251367     Delta-E=       -0.039314946573 Rises=F Damp=T
 DIIS: error= 1.12D-02 at cycle   2 NSaved=   2.
 NSaved= 2 IEnMin= 2 EnMin= -56.3260342251367     IErMin= 2 ErrMin= 1.12D-02
 ErrMax= 1.12D-02  0.00D+00 EMaxC= 1.00D-01 BMatC= 3.52D-03 BMatP= 9.18D-02
 IDIUse=3 WtCom= 8.88D-01 WtEn= 1.12D-01
 Coeff-Com: -0.120D+00 0.112D+01
 Coeff-En:   0.000D+00 0.100D+01
 Coeff:     -0.107D+00 0.111D+01
 Gap=     0.448 Goal=   None    Shift=    0.000
 RMSDP=1.46D-03 MaxDP=1.41D-02 DE=-3.93D-02 OVMax= 7.54D-02

 Cycle   3  Pass 0  IDiag  1:
 E= -56.3608244805714     Delta-E=       -0.034790255435 Rises=F Damp=F
 DIIS: error= 5.50D-04 at cycle   3 NSaved=   3.
 NSaved= 3 IEnMin= 3 EnMin= -56.3608244805714     IErMin= 3 ErrMin= 5.50D-04
 ErrMax= 5.50D-04  0.00D+00 EMaxC= 1.00D-01 BMatC= 2.59D-05 BMatP= 3.52D-03
 IDIUse=3 WtCom= 9.95D-01 WtEn= 5.50D-03
 Coeff-Com: -0.697D-02-0.503D-01 0.106D+01
 Coeff-En:   0.000D+00 0.000D+00 0.100D+01
 Coeff:     -0.693D-02-0.500D-01 0.106D+01
 Gap=     0.451 Goal=   None    Shift=    0.000
 RMSDP=1.41D-04 MaxDP=1.37D-03 DE=-3.48D-02 OVMax= 2.18D-03

 Cycle   4  Pass 0  IDiag  1:
 E= -56.3608542638723     Delta-E=       -0.000029783301 Rises=F Damp=F
 DIIS: error= 1.06D-04 at cycle   4 NSaved=   4.
 NSaved= 4 IEnMin= 4 EnMin= -56.3608542638723     IErMin= 4 ErrMin= 1.06D-04
 ErrMax= 1.06D-04  0.00D+00 EMaxC= 1.00D-01 BMatC= 4.44D-07 BMatP= 2.59D-05
 IDIUse=3 WtCom= 9.99D-01 WtEn= 1.06D-03
 Coeff-Com:  0.269D-02 0.108D-01-0.309D+00 0.130D+01
 Coeff-En:   0.000D+00 0.000D+00 0.000D+00 0.100D+01
 Coeff:      0.269D-02 0.108D-01-0.308D+00 0.129D+01
 Gap=     0.451 Goal=   None    Shift=    0.000
 RMSDP=4.82D-05 MaxDP=7.38D-04 DE=-2.98D-05 OVMax= 9.80D-04

 Cycle   5  Pass 0  IDiag  1:
 E= -56.3608556516507     Delta-E=       -0.000001387778 Rises=F Damp=F
 DIIS: error= 1.49D-05 at cycle   5 NSaved=   5.
 NSaved= 5 IEnMin= 5 EnMin= -56.3608556516507     IErMin= 5 ErrMin= 1.49D-05
 ErrMax= 1.49D-05  0.00D+00 EMaxC= 1.00D-01 BMatC= 8.85D-09 BMatP= 4.44D-07
 IDIUse=1 WtCom= 1.00D+00 WtEn= 0.00D+00
 Coeff-Com: -0.537D-03-0.147D-02 0.482D-01-0.289D+00 0.124D+01
 Coeff:     -0.537D-03-0.147D-02 0.482D-01-0.289D+00 0.124D+01
 Gap=     0.451 Goal=   None    Shift=    0.000
 RMSDP=1.12D-05 MaxDP=1.88D-04 DE=-1.39D-06 OVMax= 1.82D-04

 Cycle   6  Pass 0  IDiag  1:
 E= -56.3608556853589     Delta-E=       -0.000000033708 Rises=F Damp=F
 DIIS: error= 1.98D-06 at cycle   6 NSaved=   6.
 NSaved= 6 IEnMin= 6 EnMin= -56.3608556853589     IErMin= 6 ErrMin= 1.98D-06
 ErrMax= 1.98D-06  0.00D+00 EMaxC= 1.00D-01 BMatC= 1.85D-10 BMatP= 8.85D-09
 IDIUse=1 WtCom= 1.00D+00 WtEn= 0.00D+00
 Coeff-Com: -0.495D-04-0.300D-03 0.795D-02-0.352D-01 0.380D-01 0.990D+00
 Coeff:     -0.495D-04-0.300D-03 0.795D-02-0.352D-01 0.380D-01 0.990D+00
 Gap=     0.451 Goal=   None    Shift=    0.000
 RMSDP=1.46D-06 MaxDP=2.48D-05 DE=-3.37D-08 OVMax= 2.27D-05

 Initial convergence to 1.0D-05 achieved.  Increase integral accuracy.
 Cycle   7  Pass 1  IDiag  1:
 E= -56.3608554901676     Delta-E=        0.000000195191 Rises=F Damp=F
 DIIS: error= 7.54D-07 at cycle   1 NSaved=   1.
 NSaved= 1 IEnMin= 1 EnMin= -56.3608554901676     IErMin= 1 ErrMin= 7.54D-07
 ErrMax= 7.54D-07  0.00D+00 EMaxC= 1.00D-01 BMatC= 1.32D-11 BMatP= 1.32D-11
 IDIUse=1 WtCom= 1.00D+00 WtEn= 0.00D+00
 Coeff-Com:  0.100D+01
 Coeff:      0.100D+01
 Gap=     0.451 Goal=   None    Shift=    0.000
 RMSDP=1.46D-06 MaxDP=2.48D-05 DE= 1.95D-07 OVMax= 5.31D-06

 Cycle   8  Pass 1  IDiag  1:
 E= -56.3608554902139     Delta-E=       -0.000000000046 Rises=F Damp=F
 DIIS: error= 3.15D-07 at cycle   2 NSaved=   2.
 NSaved= 2 IEnMin= 2 EnMin= -56.3608554902139     IErMin= 2 ErrMin= 3.15D-07
 ErrMax= 3.15D-07  0.00D+00 EMaxC= 1.00D-01 BMatC= 1.54D-12 BMatP= 1.32D-11
 IDIUse=1 WtCom= 1.00D+00 WtEn= 0.00D+00
 Coeff-Com: -0.211D+00 0.121D+01
 Coeff:     -0.211D+00 0.121D+01
 Gap=     0.451 Goal=   None    Shift=    0.000
 RMSDP=1.48D-07 MaxDP=2.54D-06 DE=-4.63D-11 OVMax= 2.64D-06

 Cycle   9  Pass 1  IDiag  1:
 E= -56.3608554902213     Delta-E=       -0.000000000007 Rises=F Damp=F
 DIIS: error= 1.05D-07 at cycle   3 NSaved=   3.
 NSaved= 3 IEnMin= 3 EnMin= -56.3608554902213     IErMin= 3 ErrMin= 1.05D-07
 ErrMax= 1.05D-07  0.00D+00 EMaxC= 1.00D-01 BMatC= 3.26D-13 BMatP= 1.54D-12
 IDIUse=1 WtCom= 1.00D+00 WtEn= 0.00D+00
 Coeff-Com: -0.162D+00 0.257D+00 0.904D+00
 Coeff:     -0.162D+00 0.257D+00 0.904D+00
 Gap=     0.451 Goal=   None    Shift=    0.000
 RMSDP=4.34D-08 MaxDP=7.50D-07 DE=-7.39D-12 OVMax= 7.46D-07

 Cycle  10  Pass 1  IDiag  1:
 E= -56.3608554902220     Delta-E=       -0.000000000001 Rises=F Damp=F
 DIIS: error= 3.26D-08 at cycle   4 NSaved=   4.
 NSaved= 4 IEnMin= 4 EnMin= -56.3608554902220     IErMin= 4 ErrMin= 3.26D-08
 ErrMax= 3.26D-08  0.00D+00 EMaxC= 1.00D-01 BMatC= 3.11D-14 BMatP= 3.26D-13
 IDIUse=1 WtCom= 1.00D+00 WtEn= 0.00D+00
 Coeff-Com: -0.374D-01-0.125D-01 0.296D+00 0.754D+00
 Coeff:     -0.374D-01-0.125D-01 0.296D+00 0.754D+00
 Gap=     0.451 Goal=   None    Shift=    0.000
 RMSDP=6.65D-09 MaxDP=1.04D-07 DE=-6.82D-13 OVMax= 1.56D-07

 SCF Done:  E(RPBEQIDH) =  -56.3608554902     A.U. after   10 cycles
            NFock= 10  Conv=0.67D-08     -V/T= 2.0075
 KE= 5.593936477625D+01 PE=-1.554755759495D+02 EE= 3.122792390652D+01
 Leave Link  502 at Tue May 11 23:13:06 2021, MaxMem= 13421772800 cpu:               8.8 elap:               0.3
 (Enter /cm/shared/apps/gaussian/g16/C01/g16/l801.exe)
 DoSCS=T DFT=T ScalE2(SS,OS)=  0.333400  0.333400
 ExpMin= 7.91D-02 ExpMax= 1.71D+03 ExpMxC= 2.58D+02 IAcc=3 IRadAn=         5 AccDes= 0.00D+00
 HarFok:  IExCor=  205 AccDes= 0.00D+00 IRadAn=         5 IDoV=-2 UseB2=F ITyADJ=14
 ICtDFT= 12500011 ScaDFX=  1.000000  1.000000  1.000000  1.000000
 Largest valence mixing into a core orbital is  8.54D-05
 Largest core mixing into a valence orbital is  2.29D-05
 Range of M.O.s used for correlation:     2    44
 NBasis=    44 NAE=     5 NBE=     5 NFC=     1 NFV=     0
 NROrb=     43 NOA=     4 NOB=     4 NVA=    39 NVB=    39
 Leave Link  801 at Tue May 11 23:13:06 2021, MaxMem= 13421772800 cpu:               1.9 elap:               0.1
 (Enter /cm/shared/apps/gaussian/g16/C01/g16/l906.exe)
 DoSCS=T DFT=T ScalE2(SS,OS)=  0.333400  0.333400
 FulOut=F Deriv=F AODrv=F NAtomX=     4
   MMem=       39991  MDisk=           4 MDiskD=           4
  W3Min=        7176 MinDsk=       74093 NBas6D=          46
 NBas2D=        1135    NTT=        1081    LW2=     2000000
    MDV= 13421753270 MDiskM=     4051857 NBas2p=         831
 Fully in-core method, ICMem=     7397337.
 IMap=   1   2   3   4
 JobTyp=1 Pass  1 fully in-core, NPsUse= 32.
 Compute canonical integrals.
 FoFCou: FMM=F IPFlag=           0 FMFlag=           0 FMFlg1=           0
         NFxFlg=           0 DoJE=F BraDBF=F KetDBF=F FulRan=T
         wScrn=  0.000000 ICntrl=       600 IOpCl=  1 I1Cent=           0 NGrid=           0
         NMat0=    1 NMatS0=   1135 NMatT0=    0 NMatD0=    1 NMtDS0=    0 NMtDT0=    0
 Symmetry not used in FoFCou.
 Spin components of T(2) and E(2):
     alpha-alpha T2 =       0.9594076946D-02 E2=     -0.8793392553D-02
     alpha-beta  T2 =       0.6032347894D-01 E2=     -0.5841590011D-01
     beta-beta   T2 =       0.9594076946D-02 E2=     -0.8793392553D-02
 The integrals were generated   1 times.
 E2(PBEQIDH) =    -0.7600268522D-01 E(PBEQIDH) =    -0.56436858175443D+02
 Leave Link  906 at Tue May 11 23:13:06 2021, MaxMem= 13421772800 cpu:               4.5 elap:               0.2
 (Enter /cm/shared/apps/gaussian/g16/C01/g16/l601.exe)
 Copying SCF densities to generalized density rwf, IOpCl= 0 IROHF=0.

 **********************************************************************

            Population analysis using the SCF Density.

 **********************************************************************

 Orbital symmetries:
       Occupied  (A') (A') (A') (A") (A')
       Virtual   (A') (A') (A") (A') (A") (A') (A') (A") (A') (A")
                 (A") (A') (A') (A') (A") (A') (A") (A') (A') (A')
                 (A") (A') (A") (A') (A") (A') (A') (A") (A") (A')
                 (A') (A") (A') (A') (A') (A") (A') (A') (A")
 The electronic state is 1-A'.
 Alpha  occ. eigenvalues --  -15.06082  -1.03268  -0.57662  -0.57575  -0.37837
 Alpha virt. eigenvalues --    0.07235   0.13076   0.13108   0.17623   0.18530
 Alpha virt. eigenvalues --    0.18547   0.21339   0.21364   0.28702   0.30033
 Alpha virt. eigenvalues --    0.56511   0.56564   0.64228   0.79614   0.79690
 Alpha virt. eigenvalues --    0.84956   0.85020   0.88834   0.99826   1.23403
 Alpha virt. eigenvalues --    1.31393   1.31419   1.80253   1.88770   1.88990
 Alpha virt. eigenvalues --    2.26061   2.30098   2.30135   2.41128   2.41239
 Alpha virt. eigenvalues --    2.60045   3.06264   3.06340   3.21720   3.40374
 Alpha virt. eigenvalues --    3.40762   4.43803   4.52456   4.52873
          Condensed to atoms (all electrons):
               1          2          3          4
     1  N    6.448615   0.403973   0.403973   0.403432
     2  H    0.403973   0.357484   0.009556   0.009418
     3  H    0.403973   0.009556   0.357484   0.009418
     4  H    0.403432   0.009418   0.009418   0.356877
 Mulliken charges:
               1
     1  N   -0.659994
     2  H    0.219569
     3  H    0.219569
     4  H    0.220856
 Sum of Mulliken charges =   0.00000
 Mulliken charges with hydrogens summed into heavy atoms:
               1
     1  N    0.000000
 Electronic spatial extent (au):  <R**2>=             26.6777
 Charge=              0.0000 electrons
 Dipole moment (field-independent basis, Debye):
    X=              0.0015    Y=             -1.6206    Z=             -0.0000  Tot=              1.6206
 Quadrupole moment (field-independent basis, Debye-Ang):
   XX=             -6.2212   YY=             -9.2631   ZZ=             -6.2493
   XY=              0.0118   XZ=              0.0000   YZ=              0.0000
 Traceless Quadrupole moment (field-independent basis, Debye-Ang):
   XX=              1.0234   YY=             -2.0186   ZZ=              0.9952
   XY=              0.0118   XZ=              0.0000   YZ=              0.0000
 Octapole moment (field-independent basis, Debye-Ang**2):
  XXX=              0.9603  YYY=             -1.1941  ZZZ=             -0.0000  XYY=             -0.0043
  XXY=             -0.8749  XXZ=             -0.0000  XZZ=             -0.9521  YZZ=             -0.8744
  YYZ=             -0.0000  XYZ=             -0.0000
 Hexadecapole moment (field-independent basis, Debye-Ang**3):
 XXXX=            -10.0275 YYYY=            -11.9226 ZZZZ=            -10.0326 XXXY=             -0.3153
 XXXZ=              0.0000 YYYX=              0.0026 YYYZ=             -0.0000 ZZZX=              0.0000
 ZZZY=              0.0000 XXYY=             -3.7994 XXZZ=             -3.3431 YYZZ=             -3.7908
 XXYZ=              0.0000 YYXZ=              0.0000 ZZXY=              0.3213
 N-N= 1.194743177650D+01 E-N=-1.554755749091D+02  KE= 5.593936477625D+01
 Symmetry A'   KE= 5.330286364751D+01
 Symmetry A"   KE= 2.636501128738D+00
 Leave Link  601 at Tue May 11 23:13:06 2021, MaxMem= 13421772800 cpu:               2.7 elap:               0.1
 (Enter /cm/shared/apps/gaussian/g16/C01/g16/l608.exe)
 IExCor= 1009 DFT=T Ex+Corr=PBEQIDH ExCW=0 ScaHFX=  0.690000
 ScaDFX=  0.310000  0.310000  0.666600  0.666600 ScalE2=  0.333400  0.333400
 IRadAn=      4 IRanWt=     -1 IRanGd=            0 ICorTp=0 IEmpDi=  4
 A total of   1 models will be applied.

 Results using SCF Density:
 FoFJK:  IHMeth= 0 ICntrl=     500 DoSepK=F KAlg= 0 I1Cent=           0 FoldK=F
 IRaf=         0 NMat=       1 IRICut=       1 DoRegI=T DoRafI=F ISym2E= 0 IDoP0=0 IntGTp=1.
 FoFCou: FMM=F IPFlag=           0 FMFlag=           0 FMFlg1=           0
         NFxFlg=           0 DoJE=F BraDBF=F KetDBF=F FulRan=T
         wScrn=  0.000000 ICntrl=       500 IOpCl=  1 I1Cent=           0 NGrid=           0
         NMat0=    1 NMatS0=      1 NMatT0=    0 NMatD0=    1 NMtDS0=    0 NMtDT0=    0
 Symmetry not used in FoFCou.
 ET=   55.939365 EV= -155.475575 EJ=   39.077955 EK=   -7.646818 ENuc=   11.947432

 A=0 I=   1 IExCor= 1009 IRadAn=       4 ScaHFX=  0.690000
            ScaDFX=  0.310000  0.310000  0.666600  0.666600
 HFx=  0.000000  0.000000  1.000000  0.000000  0.000000
 DFx=  0.000000  0.000000  1.000000  0.000000  0.000000
 DFc=  0.000000  0.000000  1.000000  0.000000  0.000000
            ENTVJ=  -48.510823 Ex=   -7.638639 Ec=   -0.211393 ETotM2e=  -90.1625064933  ETot=  -56.3608556860
 Leave Link  608 at Tue May 11 23:13:06 2021, MaxMem= 13421772800 cpu:               4.5 elap:               0.2
 (Enter /cm/shared/apps/gaussian/g16/C01/g16/l9999.exe)

 Test job not archived.
 1\1\GINC-NODE006\SP\RPBEQIDH-FC\Gen\H3N1\TIRRI\11-May-2021\0\\#P PBEQI
 DH/gen INT=ultrafine SCF=tight Extralinks=L608\\0_monomer_A DH-SVPD --
 > Hydrogen Def2-SVPD --> Oxygen\\0,1\N,0,-1.578718,-0.046611,0.\H,0,-2
 .158621,0.136396,-0.809565\H,0,-2.158621,0.136396,0.809565\H,0,-0.8494
 71,0.658193,0.\\Version=ES64L-G16RevC.01\State=1-A'\HF=-56.3608555\MP2
 =-56.4368582\RMSD=6.651e-09\PG=CS [SG(H1N1),X(H2)]\\@


 Mondays are the potholes in the road of life.
                                -- Tom Wilson
 Job cpu time:       0 days  0 hours  0 minutes 38.9 seconds.
 Elapsed time:       0 days  0 hours  0 minutes  1.6 seconds.
 File lengths (MBytes):  RWF=      6 Int=      0 D2E=      0 Chk=      1 Scr=      1
 Normal termination of Gaussian 16 at Tue May 11 23:13:06 2021.
